# vtk DataFile Version 2.0
created with he
ASCII
DATASET POLYDATA
POINTS 2562 double
0.6167201273791253 0.6384409295569369 0.1662635349537047
-0.7302925434197403 0.5285639347252415 -0.0969961903462858
-0.8030810238692453 0.2753026031722643 -0.2074256806804001
-0.3817107682959099 -0.7712035779282729 -0.1642780671605576
-0.1602522748414796 -0.7727976395480451 0.3694566150082373
0.4470845310454684 0.1292543480366423 -0.6832133451707896
-0.3970110457176148 -0.7295287375083066 -0.2502725481949582
-0.2745699956171606 -0.5877935369345474 -0.4921334074654946
-0.648641749055716 -0.6871244427092752 -0.1753206317565603
0.2094921919611824 -0.7818481522384361 -0.2892768512525512
-0.06148175161377362 0.8346205282772061 -0.322407552664153
-0.6791939576690069 -0.1798772583020335 0.3901704467113834
0.1070699247340517 0.1150142857186881 -0.6890817868862942
0.5923923943043037 0.7173436695293818 -0.2022704010474079
-0.691667465406857 -0.5660713360682753 -0.02170914769227644
-0.6772010335334316 -0.7503779542622433 -0.2927990966291288
0.2004448628423736 -0.6521575769008464 -0.4540079147342181
0.2903563200002698 0.03363742373921727 -0.7360102650897574
-0.7832785035682691 -0.3859071932841948 0.2741161569989798
-0.8911428754729356 0.000104406068906211 0.005500339618952538
0.8825234308721367 0.4406281606096209 0.03646368891175494
-0.6914740570896464 0.62374018284568 -0.4692724405418329
0.4330402072574516 -0.8375757290372975 -0.01487268951162388
0.5484492855004021 -0.830614739342906 0.005902742020543933
0.3892853110981064 -0.6065898624754585 -0.4283438619526015
-0.09870446621955674 -0.855549523755735 0.2173779337680905
0.2956448521277259 0.483527227440686 -0.526462575804432
-0.2252105709359047 0.5765377281544853 -0.5387596293205713
-0.3395054858942343 -0.5177969710534065 0.6370596108899238
-0.04618048499823133 -0.9323790967973378 0.3757849933604048
0.7793075221534076 -0.05454193289405819 0.2914069154334317
0.5348833898009069 0.06348817891632749 -0.6195604174456277
0.3164904654068821 -0.4145757979566182 -0.5519824069797723
-0.6236266009191681 0.6727606787725631 -0.05320494319825689
0.625331657940147 0.3248324632495392 0.3704505037483178
0.5921801509529281 -0.7173120118252247 -0.2023185691528269
-1.066805855231885 0.3750154979891768 0.2290891642813651
0.5032525012752794 0.720865725243695 0.2841451308478057
-0.2236900841956513 0.4023147771215631 0.5566120938118959
0.4458305530242189 -0.4249266229227495 -0.5024419940268843
0.4698290322841157 -0.7592158568368805 -0.14158326733159
-0.7816561568804583 0.3528707320763663 -0.1867082924184141
-0.8206090109773583 0.2854167538471474 -0.1601427929037293
-0.6099120517136438 0.527695013626259 0.2294153902887618
-0.4702762900201 0.6790191802967617 0.2877261071483472
-0.4274583403208385 0.5311524485517243 0.720204373394545
-0.6270524793690195 0.7033755257552259 0.04917585723150477
0.7513719014592934 -0.5005011881289895 0.09718980390822134
-0.3705918261900735 -0.2958211850107837 -0.5797219066499587
0.6921373211702107 -0.5761608958763745 -0.0867806927329012
-0.3115548215851736 0.531231230457095 0.5475873905501927
1.043743264595729 -0.291482110275279 0.2330148109178849
-0.8722365866059012 -0.3139040148484963 -0.05197243061349706
-0.3195808448559868 -0.260443476283274 -0.612590437489256
-0.03819717482485386 -1.04603969430475 0.04152003162988046
-0.1521266127797425 0.917071341144952 -0.1878329889444081
-0.5375931971097966 -0.9822404124449141 0.1495605281268721
-0.2776947737901934 0.4249603115035084 -0.5634126886325065
-0.09976056567593578 0.6318275361433806 0.4590647760147313
0.3485948879970499 -0.7097805196375879 -0.3192857911718747
-0.7416077729003721 -0.4932427498518523 0.1418606700237968
-0.9448006503092798 0.2267358100665776 0.07801014910650425
-0.7318241621953446 0.1044625373385808 0.5412982112657938
-0.8965385570516271 0.1327384515703559 -0.0239488872782149
-0.09175972435875249 0.9279697090017026 0.4310899834337543
0.07341991858067107 -1.079725787873162 0.006673264352094921
-0.2453010767776234 -0.6472629028604094 0.3908674022006143
0.6059486948891755 -0.3056774862876664 -0.4394745571865387
0.5848474276531873 -0.7142548281418871 -0.07605953849588909
0.2071404026149676 0.8398025567781452 0.1593820072207449
0.5854708501184007 0.7090691309641999 -0.1391562332210553
-0.2996080367145372 0.3981058638792139 0.6001803460862193
0.8244982695633689 0.02774179120683608 -0.3949638911726189
-0.6819802794089384 -0.5563560311477435 0.06954458450418208
-0.04024879919538363 -0.6596518767175867 0.476424710176258
0.5084110614311431 -0.8070274811897523 0.2921465756713517
-0.6496888310022074 -0.0372978588848549 0.6107647942459142
0.9209126853937218 0.2146500537639968 0.02678083534153424
-0.1294503756495708 0.6189190094589325 -0.6263483148334726
-0.2000696703870001 -0.1922488001389908 -0.657750296162546
-0.7505568399240468 -0.07918344525804914 0.4352055762074878
0.4914164687280061 -0.8756587028799584 0.2826244665060884
-0.0401230471555221 0.6596181352499193 0.4765299210023254
-0.4633442348637944 -0.849799330492345 0.002751423518251573
-0.180446433977992 -0.03383432267948565 0.6241987015546909
0.3517706796391188 -0.2527165341621602 -0.6128540941151189
-0.0951117285793955 -0.7918838702258048 -0.3901079489877295
0.1646223399802453 0.490663614550871 -0.5699088171981137
0.00150890320830375 0.7298355850322122 -0.6848459378099322
-0.04311660382491697 0.6059977732222686 -0.6427675791728181
-0.8599265243182065 0.08036860249700281 0.1288470837193114
-0.3349053627611036 -0.2063377397473677 0.5532116740105832
-0.2004430488407733 0.6480073155890158 -0.5414223864463198
-0.7962884942294891 -0.1768705717674018 -0.315980446121626
0.7408261739211456 -0.2514660767834033 0.3290994764492122
0.5084753818610187 0.5538517246155522 0.3363547684733288
-0.9001593492154553 0.1579937988464311 0.08058177375409631
-0.1549940361259023 0.9229120733589816 0.02766831723016698
0.1209087833224686 -0.918119333782491 0.0714109779708363
-0.5925134760662927 0.477024429916253 -0.4399733852031478
-0.01503750453852396 -0.3363824326791269 0.5525880422271723
-0.04636432130848508 0.4441379561694952 -0.6190115186022456
-0.03626399586459268 -0.8717805247194826 0.2322326137209426
0.04939888620629353 0.3026173896282676 0.5667918354878486
0.63508155165531 0.7844623067427168 0.07364584959662729
0.9787843873464668 -0.229449555389642 0.1271032861230681
0.11533028792207 -0.4627934572337984 -0.5954379730676047
0.1851196292908833 0.3923847120131969 0.5492947487326041
0.7925782868079354 -0.461847570357467 0.0002139547469379924
0.6823270618852412 0.3795243392616009 -0.3645899127449072
-0.07967699064343031 -1.08579217996976 0.004537806035090588
0.1851978041254529 -0.3267007478988295 0.562632638303265
0.7034590763355837 0.1963856537177392 -0.3813764241083584
-0.3609515666603304 -0.7864879169715854 0.2456038961482218
0.1099474445733859 -0.4087701621444735 0.5314897661154371
-0.06444162183387736 -0.09605474595875509 0.7233487106141708
0.7579640401564202 -0.4147987504492414 -0.1846728293829204
0.02061240048739141 0.7749054419184759 -0.5163108806174134
0.5155713567247771 -0.4204478722784006 0.6441152488051219
0.02468975275954359 -0.8726006536157508 0.2347132347570209
-0.7438211600964446 0.3421028233949185 -0.2773779440578409
0.8409777165169023 0.4819049880265869 0.0964352537287551
-0.3708601128880114 -0.8474601100759011 0.1915214753376425
0.8284386865273945 -0.3541319516013616 0.3065879211356003
0.8776829849635719 0.08259558091038471 0.08728559679560628
0.1812851409331128 -0.1482432440060022 -0.6826377945263497
0.1200578145066955 1.077404492257441 -0.130066543139691
-0.7274512062574764 0.4264948406686899 -0.320190401738655
-0.5722953380014555 -0.05328009143308764 -0.8359159108879614
0.2902383490202246 -0.03295599499360173 -0.7356354370237932
-0.0672835727154346 0.9467628621776764 0.5196700007540629
-0.05135245580066319 0.1986185364729577 -0.670220817101372
-0.7447320095455696 -0.08364958527417879 -0.4016499686489208
-0.1220186041229328 -0.1303138267269608 0.6316194750621407
-0.4878782898734143 0.0001599955169803999 -0.820847459484088
-0.7223582510311073 -0.2921534864883067 0.3139111861664696
0.7030198504323504 -0.1056191829419356 0.5784564642320442
-0.2127901180656088 -0.2638712282405224 0.5685319682421199
-0.7641819830920485 -0.7646011118434886 -0.3585688938117451
-0.8957599396510332 0.4497078944839118 0.04292095406440592
-0.8255800922344909 8.338619099668677e-05 0.1872559091842135
0.5084009121942235 -0.5539760668673755 0.3362865424349728
0.5640192798249236 0.7726092808677407 0.2793348914902948
-0.5935497738403759 0.7183376888493206 -0.2299499888923281
0.04615305661434264 -1.156225997087555 -0.0336753914319752
-0.1826066382009955 -0.9060665188459803 -0.1461145280958151
0.6208575565476869 -0.6825588957157223 -0.01150159017449298
0.6322629972775193 -0.715451627921121 0.0828771059102919
-0.5893433152477671 -0.7861037992659634 0.2653988376187849
-0.407890972836788 -0.6819387452106257 -0.3310483434274182
-0.3382690457255486 -0.8016556267327776 -0.1261841601504541
0.8504413388718177 0.2004906272776978 -0.2051135371952612
0.8296236217260039 -0.07667988739406142 0.2091741540233271
0.7532963790456056 -0.5680459944652839 -0.2336788495628587
0.8825594129721915 -0.4407740111999084 0.0363864383060208
0.255534177096812 0.7349692403305524 -0.3257332268246266
-0.3609509905666355 -0.4614518585086262 0.6833516556729079
-0.1621698311989296 -0.697248708554109 0.4125907767763416
0.312414363913212 0.2854986826763314 0.5737436426466068
-0.0616706984974071 -0.8345960141600012 -0.3225854776722646
1.080395465892077 0.3850423211551779 0.2203845292927122
-0.773663508211636 -0.145520643851976 0.2962710806021978
0.6865628369354794 0.5608382661314514 0.0192791627663725
0.2241479817182403 0.8824885146758912 -0.02191047506094133
-0.1586796058412196 0.9720984446646966 -0.1189174825507209
-0.7318085227444207 -0.7520045478827908 -0.4240202290149214
0.5259036680975946 -0.06190050012460183 0.5518229998393882
0.9069377065864689 -0.1489179727277555 -0.204602956211223
-0.7447355104336117 -0.571858221695643 -0.4436090018695895
[...]
POINT_DATA 2562
SCALARS x double 1
LOOKUP_TABLE default
0.6167201273791253
-0.7302925434197403
-0.8030810238692453
-0.3817107682959099
-0.1602522748414796
0.4470845310454684
-0.3970110457176148
-0.2745699956171606
-0.648641749055716
0.2094921919611824
-0.06148175161377362
-0.6791939576690069
0.1070699247340517
0.5923923943043037
-0.691667465406857
-0.6772010335334316
0.2004448628423736
0.2903563200002698
-0.7832785035682691
-0.8911428754729356
0.8825234308721367
-0.6914740570896464
0.4330402072574516
0.5484492855004021
0.3892853110981064
-0.09870446621955674
0.2956448521277259
-0.2252105709359047
-0.3395054858942343
-0.04618048499823133
0.7793075221534076
0.5348833898009069
0.3164904654068821
-0.6236266009191681
0.625331657940147
0.5921801509529281
-1.066805855231885
0.5032525012752794
-0.2236900841956513
0.4458305530242189
0.4698290322841157
-0.7816561568804583
-0.8206090109773583
-0.6099120517136438
-0.4702762900201
-0.4274583403208385
-0.6270524793690195
0.7513719014592934
-0.3705918261900735
0.6921373211702107
-0.3115548215851736
1.043743264595729
-0.8722365866059012
-0.3195808448559868
-0.03819717482485386
-0.1521266127797425
-0.5375931971097966
-0.2776947737901934
-0.09976056567593578
0.3485948879970499
-0.7416077729003721
-0.9448006503092798
-0.7318241621953446
-0.8965385570516271
-0.09175972435875249
0.07341991858067107
-0.2453010767776234
0.6059486948891755
0.5848474276531873
0.2071404026149676
0.5854708501184007
-0.2996080367145372
0.8244982695633689
-0.6819802794089384
-0.04024879919538363
0.5084110614311431
-0.6496888310022074
0.9209126853937218
-0.1294503756495708
-0.2000696703870001
-0.7505568399240468
0.4914164687280061
-0.0401230471555221
-0.4633442348637944
-0.180446433977992
0.3517706796391188
-0.0951117285793955
0.1646223399802453
0.00150890320830375
-0.04311660382491697
-0.8599265243182065
-0.3349053627611036
-0.2004430488407733
-0.7962884942294891
0.7408261739211456
0.5084753818610187
-0.9001593492154553
-0.1549940361259023
0.1209087833224686
-0.5925134760662927
-0.01503750453852396
-0.04636432130848508
-0.03626399586459268
0.04939888620629353
0.63508155165531
0.9787843873464668
0.11533028792207
0.1851196292908833
0.7925782868079354
0.6823270618852412
-0.07967699064343031
0.1851978041254529
0.7034590763355837
-0.3609515666603304
0.1099474445733859
-0.06444162183387736
0.7579640401564202
0.02061240048739141
0.5155713567247771
0.02468975275954359
-0.7438211600964446
0.8409777165169023
-0.3708601128880114
0.8284386865273945
0.8776829849635719
0.1812851409331128
0.1200578145066955
-0.7274512062574764
-0.5722953380014555
0.2902383490202246
-0.0672835727154346
-0.05135245580066319
-0.7447320095455696
-0.1220186041229328
-0.4878782898734143
-0.7223582510311073
0.7030198504323504
-0.2127901180656088
-0.7641819830920485
-0.8957599396510332
-0.8255800922344909
0.5084009121942235
0.5640192798249236
-0.5935497738403759
0.04615305661434264
-0.1826066382009955
0.6208575565476869
0.6322629972775193
-0.5893433152477671
-0.407890972836788
-0.3382690457255486
0.8504413388718177
0.8296236217260039
0.7532963790456056
0.8825594129721915
0.255534177096812
-0.3609509905666355
-0.1621698311989296
0.312414363913212
-0.0616706984974071
1.080395465892077
-0.773663508211636
0.6865628369354794
0.2241479817182403
-0.1586796058412196
-0.7318085227444207
0.5259036680975946
0.9069377065864689
-0.7447355104336117
0.526555508877501
0.5862822041469892
0.05040611124660736
0.4063191645617247
0.2523213704305911
0.08038977628906759
-0.9989787969311473
0.5155352451658971
-0.8574986377308351
0.3702164022829892
-0.6564574597663732
-0.7195484900571901
-0.3304757327035737
-0.6699157450786404
0.5364350705193633
-0.0457885272490207
-0.04941883246422191
0.508565862724259
0.04587140471937695
0.5919822059074767
0.02120748532904882
-0.6492569543480792
0.268959267497096
-0.2744056928842681
-0.9522315144301117
-0.3875197976669603
-0.5312512508856303
-0.6237857605194768
-0.4521694797950313
0.8361564945452852
-0.6559709855364484
-0.8730448260715571
0.7284249373931391
0.6648039162086151
-0.3699994470570228
0.6466160728054635
0.7447241877557457
-0.4778121117181161
0.9017939999481508
0.2990225540989106
-0.04132022901547065
-0.9202863866281992
0.3413255867819847
-0.2196721911196982
-0.792644457665807
0.4915744272003355
0.4783740409202096
-0.4851262789681141
0.7466384421178047
-0.09988120373050442
0.7714670754212153
0.7714850290774169
0.7466473825693579
0.4528602807392926
-0.2966065828538451
-0.7973072641335537
-0.7635757853745905
0.2517563951401764
-0.7962564945520539
0.03935519448277899
-0.9178995332163816
0.1003292140367686
0.9822093546065817
-0.09999276929702866
0.3584037927902475
0.1274764663985304
0.3767095827249773
0.09809439533278522
-0.7669826569031468
-0.1718503480495858
-0.3195141166239434
0.7638527792727724
-0.7262804306794488
-0.2451759808742735
-0.4482868068981237
0.6249446004283301
-0.1827843350259648
-0.1225080968880175
0.6122545808342159
-1.086955780872277
-0.750540415056355
0.02459981491440507
-0.02926830727411697
-0.2026764713794636
0.9111603221432738
0.6231189126417578
0.03186230801607466
0.01326590234362023
0.6633313130166811
-0.1688311363412071
-0.1828269303689652
0.0578695450911549
0.8721887939802461
0.8851790603061149
0.3274183992940228
0.164533333099305
0.08461056701762501
0.1023783888094731
0.875343741845041
0.9785736313912134
0.1840981638879485
0.5336675104297161
0.8523923346391442
0.7139254004256625
0.245311960810365
-0.5628565519593142
-0.8493849375069505
-0.1860473036985991
0.8860626145155431
-0.671596118994318
0.4782986701901449
0.4699516829857323
-0.4494745793328405
0.8364934140090745
0.5831451962139088
-0.3968476844243956
0.7454973887466455
0.762151657827122
0.04640709378194682
-0.3178075362704038
0.2095992324729128
-0.5208041245042674
0.8510799899507032
1.007197493727944
-0.7515396817228376
-0.7521879599416317
0.2720803344436354
0.9244945723880578
0.2516175267716289
-0.5362621384292998
0.4346722408902265
0.5837127452286164
0.7238161627184994
-0.39193479448273
0.8671572208886577
0.1491654463005015
-0.03796454927777709
0.4317989795121842
-0.1448131433682233
-0.03348486980731879
-0.0745426133829218
-0.5887857213490295
-0.4809359336659393
0.6862863899145055
-0.4957081257114325
0.6632402430130971
0.7139974574227766
-0.5268560960432047
-0.5676734044847872
-0.2155326671178112
-0.9082937557388623
0.6191539000893268
-0.6286468131999836
-0.6679140981245028
-0.9552971444389298
0.7873359283853045
-0.7635920252362284
0.5715255942890035
-0.2534071399551409
0.159343612641641
0.5667227946654967
0.08457362209184857
-0.01497511183610474
-0.2986636854465511
-0.0821916085161301
-0.8097162708505998
0.5587334617263813
1.003959767976361
-1.070830785374405
0.2990551952282279
-0.7252064552733795
0.02771537030750125
0.2726144291819669
-0.1448892605507988
0.3818918572955654
0.9155044126717736
-0.6568626807057388
1.044225790573632
0.768997338973356
-0.121383328589918
-0.1001637340769106
-0.5146946645058013
0.4031563251102389
-0.1753586692512172
-0.8419261385748423
0.8118853034773317
0.7675936460392845
-0.9553007504365564
-0.4798553832079959
0.9752510325538227
0.8382563952646193
0.4226485499979352
-0.4077353609706842
-0.2668720325824679
0.7769993522676557
0.1498996098398306
0.611209031717046
-0.2628963948541927
-0.471100107499695
0.2803743664608417
0.4540769728967305
-0.4260071527102043
0.0968628863218691
-0.09653694099091878
-0.1666697363788281
-0.6927078918300217
0.6865188271161997
0.5606071952778764
-0.07946915199570674
-0.356681228499012
0.6489145461665552
0.9659771707794516
-0.6088451044261938
-0.66144724453736
-1.036558981324499
0.7477723143912958
0.06847241476174822
0.1493526727499099
-0.8959092147625902
-0.716008071982305
0.0003486811463426545
-0.6081294698094536
0.7454251625311237
-0.4197916925766086
-0.01561164869730776
0.6777498009627855
-0.6879246812667384
-0.5464089073814573
-0.2127427131809472
0.4528438079002723
-0.2435788454941204
0.1022491952886313
-0.6373131065254397
0.0479563305723
0.7533856401250028
-0.04142121277386731
-0.256301764028419
0.03249464544999878
0.7583867906716771
0.7118721188310776
0.1864406162537243
0.6730229713959146
0.5939176566846798
0.6121095972318064
0.3918028366467865
0.2364514947315558
0.1611941049841389
0.6277421885608488
0.5700435557221214
-0.8071214835117235
0.4055486146330494
0.235729194654458
0.6512903145110733
-0.07946269665698469
-0.3608639829642004
0.4439384537435783
-0.7669778472845526
0.1276588059175464
-1.042581828773906
0.4519047994171253
0.627833447042239
-0.4484585437805612
-0.3607973791131258
-0.5682962025322258
-0.3083644496538581
-0.8959629607273071
0.09830101223385526
-0.620103374632915
0.05061397531390818
-0.8412276996657735
0.8109698989178931
0.8777458399369729
0.7117375430665306
0.5619590810074925
0.09699947259278674
0.2452078820917472
-0.8402160997969949
-0.35849947022787
-0.8860911434647377
-0.2564282074922829
-0.3901654495605849
-0.1572430171257308
0.9774800772145805
-0.15700694321863
0.8720692114855653
0.9038968448171827
-0.8717860901325521
-0.50050962589269
0.5303442164724754
-0.5844044858961011
0.8503694812948283
-0.04961809041591192
-0.5277336811301109
0.4981151614346452
-0.6247376352955069
-0.5577235107782379
0.5852839461136449
-0.4577302090913383
-0.7910756590648582
0.5757734053047566
0.6229917320681693
0.3918970496784034
0.6325904117220069
0.373945183153986
0.7652761528731101
-0.5723325292424143
-0.1799420274496256
-0.9620652437446424
0.6954338608913907
-0.03913529915771562
0.3155743853372394
-0.9366869334686879
-0.8201699116423952
0.6382587471744513
0.5346204364312205
-0.1924126532076438
1.078861057255773
-0.1033228881370093
-0.2343474424220103
0.3703500594218218
-0.5911126332418427
-0.6081898050077176
0.7754545493548428
-0.3322864701596319
-0.5891566246655323
0.4030571695933065
0.8360861223167179
0.4006198988920142
-0.8496288651259044
0.4754749969150662
0.5265102418511111
0.7968845515811322
0.5164016775823898
0.8862712798965221
0.9394825212625124
-0.7394355666462411
-0.7624722911067974
0.1394896815739947
-0.7756522337498538
-0.7542003434676764
-1.081130153153601
-0.6980642519980654
0.063680634284833
0.6743456469047943
0.4744867485834975
-0.9213331849604414
1.063757301958276
0.06860502033482278
-0.2625268517128574
-0.4990920209054628
0.1717512537197972
-0.797320776150959
0.5853049266290983
0.8037549529924225
-0.1800355193920599
-1.110562488063636
0.5714220987176237
0.5364108636639668
-0.3110964483459448
-0.7594220895038321
0.8024716062336299
0.7341116715252149
0.08558126609678239
-0.01845189821987306
-0.3479416035720987
0.8628204067769997
-0.5502820412332167
0.2896321808870396
-0.406134471310075
-0.8958521285649342
0.7242327488966954
0.01681183605987826
0.3981013475484847
-0.2202886001826663
-0.5178806401843967
-0.4381124050920074
-0.1254657175915501
-0.7554198488010213
0.05037018847478722
-0.9365923763952019
-0.2955099646352742
0.2839519533533426
0.895513402194474
0.9535605298252329
0.5026509476019696
0.4907146431192514
0.1873377345555424
-0.5361872580409964
-0.7318464381473215
-0.04974485884674847
0.6729457082008209
0.5315213715230157
-0.2760195362909857
0.2313830277849887
-0.1333792156034172
0.5620098881751697
-0.1138824343615806
0.1613488272606298
-0.9448713997924723
0.738344490261489
0.5831030233134373
0.9823898384224402
0.7263131669484777
-0.1034208958906715
-0.9025641940064205
-0.4928901669968008
-0.2633464186409661
-0.1332649658462801
-0.1804405143886582
-0.0975394879799643
0.6577274118852465
0.03412830466369763
-0.6251893675048552
-0.896570723002907
-1.01558570664159
-0.5930593320613904
0.6596065031769052
0.7579055982875513
0.04542797413890792
1.060205242417003
0.6350532434888929
-0.8388077694731844
0.8295824377090791
0.6201180676183053
0.07159677230196154
0.002800722800264087
-0.1551871792459246
-0.6979318273299018
-0.4578977735166921
0.04934169371520913
0.4781662477445739
-0.7658346525289974
0.2315010216313078
0.5937220185780064
0.02746063560462892
0.5327731855936905
0.1657741549456856
0.1495498248321379
0.3880005321248784
0.2380812549291557
-0.3998510629176915
-0.04980903047930164
-0.1172768331359784
-0.4317968262814148
-0.5821465264323268
0.1888811276803153
-0.2276967302201213
-0.1725637470763798
-0.08243661075692307
0.1656403548968091
0.327130095854108
-0.5524536306841052
0.6921986280790565
-0.1567646973248324
0.9558853189727948
0.2956214129489341
-0.5270501952701699
0.8108668534313748
0.3270939522617639
0.948890370215057
0.4372456975922141
-0.6217367939113385
-0.5208696829679664
0.978718189835876
0.5155578038923925
-0.3332851187414425
-1.070816855487525
-0.1572124053120078
1.040047201804705
0.7271432591973368
-0.09635150423480845
-0.6247801811258131
-0.1261579408881418
-0.007691430933366924
-0.5926559104825305
-0.4686526394850865
-0.2849068139655282
-0.6488186803234878
0.4488984083841937
1.042779630649666
0.5560451447518813
0.5492618115520862
-0.4520288872796787
-0.2997919532062767
0.7448528312135122
0.6309973635060763
-0.6566063091276881
-0.5655571762805637
-0.7104563227327323
0.9086753427981893
-0.6356216315578949
0.9493014634823934
-0.7367056120234461
0.9134887399489386
0.7524681510625106
-0.7543395314774169
-0.7439222223005431
0.002577582303789931
1.079748991988776
-0.1570280780411132
-0.7520888512477161
-1.015505038873601
0.6738120982656813
-0.875810792509323
-0.9525214856374052
0.2236276668180982
-0.6014131112198519
1.106250227899478
-0.5859137699735789
1.060004173010784
0.5604614105267623
-0.1922286005848574
-0.6916500527894393
0.110026081242284
-0.3952832753918021
-0.6484752680351635
-0.8721153815969104
0.5970766635889664
-0.8402489106338019
-0.3454427176795235
0.6308274751183013
-0.7275902944204434
-0.8219116389150047
-1.04249879271852
-0.58903703678382
-0.3304259644382577
-0.7514353651333112
-0.5262630982446104
-0.6558549194082288
0.3856024610571286
0.8409359051560503
-0.5579119564228417
-0.223892187998321
0.5019913018907468
-0.599881638222666
0.1298559762917681
0.06508641958766449
0.4488510470569345
0.6648499117385811
0.4755626918223101
-0.2097984398518669
0.4331290709361867
0.07722704155121325
0.5484984456161571
-0.2273713862464698
-0.6371283608034501
-0.01277673174048515
0.6190830865107793
0.7445603929999237
0.4908124038440608
0.2554468732313419
0.3855086220601748
0.5164713196066867
-0.06747180032394068
-0.3565172432594368
-0.8201523439882358
0.7341286296899666
-0.02902045847349109
-0.6250408925231056
0.662423116684321
0.5714973296449056
0.3739172508610544
0.1887215249154661
-0.1686193476098204
0.112250018590966
-0.1292684827521915
0.2465144179784246
0.149626090594183
-0.5655238177865884
-0.6429483388880038
-0.07942241888530728
0.7636255170410592
0.3529609201354338
-0.378348165119302
-0.3067636592840259
0.4658092838096493
0.886088818129349
-0.3927192748710475
-0.2275552502424729
-0.01288882836302554
0.7962674194853783
0.1025544731695903
0.07384179122167453
-0.7339212117065358
-0.3324427728263171
0.2652899168283008
-0.9133431127449027
0.0340319508859732
0.583575882081653
0.7506843776569619
-0.4471496048193863
0.9157265965737872
-0.9025633892609027
0.6954188204744102
0.5697473244163866
0.6355768938512103
-0.6336175967616353
-0.155562338917821
0.1125727100439562
0.4457418131333073
-0.2253824796215781
0.3881188904894862
0.05018218370196125
0.153618009437873
0.6464788586771151
-0.3815417970055426
-0.1727253908953217
0.06521623458476287
0.6643795208630499
0.07366574796373243
-0.8885641881665368
0.08807953802357973
0.3341375247171612
0.2469550410669993
0.116782647693861
0.921079804755403
0.1615352215574731
-0.774332859220655
0.1531788189998885
0.1421692460730479
0.1554604581751799
0.4510691466295847
-0.5148541150356656
0.7969483523691143
0.7514283095754728
0.5823883228849492
0.2689323160245747
-0.6494032067300572
0.4037936008913242
0.6381591803809048
0.3090205603547608
-0.3634786277680586
-0.8860916240588057
0.2230508031440326
-0.1089237088708692
-0.7944708458204228
0.2920564502816538
0.740852265816891
0.6742873395628231
-0.4807654667093262
0.8118511526635361
-0.5821763864000259
-0.5362303037525586
0.4488933431291382
0.7501447512742154
-0.6401870150228812
0.3785609017223585
-0.6025289059158047
1.042824089959511
0.6298318699580627
-0.477621407774052
-0.5113098490530952
-0.2437188522255677
0.07738131569404888
0.6426607116766591
0.9207219722017643
0.7358291390976137
-0.8497090867665245
-0.3635390532132127
0.9071067038384808
0.8169733737465779
-0.06478460702142917
1.061389267472863
-0.5111247974210181
0.556137743892847
-0.04954731770519655
-0.6818581920832889
-0.6205087754892444
-0.5311098817037444
-0.7410868636165581
0.4522367828743042
0.3024316604483051
-0.09082351251343194
-0.7747888434317646
0.02741245767228984
-1.012621121141298
0.91162298203688
0.5836808579614402
0.6427275423693749
-0.6736402883126349
-0.5887116195216523
-1.066893391702616
0.3255923106599114
0.2151436063419435
-0.6612437794462924
0.3483996607991721
-0.3348672334608025
-0.6927259822790992
0.03916853229538522
0.566639944382201
-0.1402771091440072
0.9313311064916899
0.3123634108588217
-0.5630372601864625
0.4227734525297019
-0.339406953085795
-0.05351319321007875
1.036827336503913
0.4747493613329548
0.289638003820227
0.8653269105832734
0.9978138502918047
-0.5860526890943244
-0.9881827491618556
0.406223851177051
0.7836305819978769
-0.07975973448160549
-0.1211782133354384
-0.009450600154944739
-0.5161122316172457
0.5328144390592026
-0.7774879460541296
0.3254984978540556
-0.6880171756874344
0.6996293404773126
0.5156296278408493
0.85028836016701
-0.8841034276418043
-0.5162060106635726
0.8946073326040777
0.8501673700427357
0.732199946947069
0.08789076031581511
0.4507057213953644
0.5971480902746801
-0.8503694359883226
-0.6329554822019317
-0.7825639253300559
0.2378220148242255
-0.1824046204589906
-0.4492858930541774
0.1716399016439022
0.1126751238583103
-0.6500161633841607
-0.0292295178482832
-0.2238300971570131
-0.2257071015627284
-0.08440700154408638
-0.5602606744389719
0.3074816055143542
0.8511372157256549
-0.9066671676460361
0.3013427482595915
-0.7832039968935542
0.1475798863303273
0.6644705355159358
0.07516739852897082
0.1760286322071068
0.5795481218788018
0.06368878069636517
0.8754420043260247
0.585093598659234
-0.9002066852032146
-0.1523327824874475
-0.349215579337939
0.1402544907774533
0.8672234785384768
0.7834064956684896
0.265176239536451
0.7284285618268247
-0.9882314185423817
-0.06678314230890432
0.01148869074028225
-0.8926355347661706
0.4005438068081651
0.437161962103459
-0.9883175198787738
-0.952302105736443
-1.012531216160715
-0.7449163158839868
0.7128341977377493
-0.8927064117224487
-0.2778268543319535
1.080408448794645
-0.3176545370347647
-0.0977633001052247
0.9085915281392537
-0.4635818950122275
0.6513754311711011
-0.8718600676996128
0.1130719708140103
0.8650527727541395
-0.9614663023472514
0.6649332858986055
0.1495195754459874
0.03258525631238104
0.1498156895980495
-0.8574492401367692
-1.03646230125138
-0.5067441565898795
-0.7969596829536523
0.09700509821346073
0.370079635474551
-0.988092062641059
-0.1650715816538419
0.6386636028210702
0.4817704463794676
0.1053347645869809
0.7687749955451567
-0.2564759268427853
0.7449290608121881
0.3027894705358673
0.3014879045183269
0.5411535785599361
-0.4588862977796896
-0.8002881097943464
0.8927094317166797
-0.1259612628469113
-0.121553248129416
0.1197745450243921
-0.3998544913234613
0.7633761412287621
-0.6156850623414285
-0.53145122798303
0.6777810894488915
-0.4231970857345017
-0.2634058933509634
-0.2976293470257663
-0.2258334420907611
-0.8200961370707355
-0.4307622086396305
0.586448051727761
-0.592871361261375
-0.2198625079760005
0.07616474621479671
-0.4709849991503458
-0.2850384274445553
0.4199448715754716
0.1644764451905702
0.5462545169711228
-0.5623942881374178
-0.7304275531381306
-1.079126734215715
0.2007463008986135
-0.7459697683116306
-0.8217065398786924
-0.02920347202894007
0.8109204613193769
0.4823322468129408
-0.07462282393140227
0.3338030116368097
0.6016179852011884
-0.972288697090771
0.62277033762326
0.6203304038710346
-0.8287008782611354
0.09006152666763828
0.804636194759571
-0.9313376126884286
0.1557366216070668
-0.6716561907452595
0.6646404890332637
-0.07941296864706207
-0.1566210431083062
-0.9722958695917141