# vtk DataFile Version 2.0
created with he
ASCII
DATASET POLYDATA
POINTS 2562 double
0.7061263156316381 0.7331951401327198 0.1417628434693935
-0.8302125117484082 0.5956508706231948 -0.05803366665354713
-1.024067581711595 0.4087932506993059 -0.2226703385666078
-0.4958151859968323 -0.993224721536825 -0.1822735806499347
-0.1856949847834629 -0.8195927907964172 0.2690627278318647
0.3914607965378485 0.1691425133219081 -0.4174100229271628
-0.4913789479244944 -0.9186794424897509 -0.2465163462550783
-0.3327155382770305 -0.6227016905781275 -0.3614326208937952
-0.8075767228872225 -0.8742755386373291 -0.1359289443655189
0.2474038918717662 -0.9265680371817823 -0.2936017334323944
-0.08684388514999204 0.9912896015270496 -0.4139780772617428
-0.7498417077373801 -0.211941185268324 0.3055182832544392
0.07982685408720422 0.08884296828628893 -0.4749129469272198
0.6056442441438415 0.8102086983746198 -0.16058131317555
-0.8850818121007817 -0.721339228609707 0.008954192070878711
-0.734100508428124 -0.8296543812646293 -0.2214706390239812
0.2248618139202773 -0.701956677409088 -0.3577208457401394
0.2033573714707483 0.01900030082797876 -0.5565302759058234
-0.8524634635242548 -0.4196713221759885 0.2520718160007775
-1.114341207121653 0.02416751522482935 0.04308107606188982
1.041041500565095 0.5902791144877875 -0.01779210129915588
-0.5962505543354083 0.553781403218553 -0.34255792862836
0.5056504162140127 -0.9743946261003896 -0.06787233208785474
0.6828842428002752 -1.012908234160212 -0.0620936977897194
0.3803292260335096 -0.6461091172707685 -0.3414939384547738
-0.1089686069856479 -0.9961442506954098 0.1549416271599561
0.3216139960593824 0.4959604864990105 -0.4239382131424843
-0.2946470182422285 0.5474722611935191 -0.4445781880384714
-0.2731472006801712 -0.4724637649128093 0.3647131900524726
-0.02145654925979396 -0.9203927429180047 0.2345358651557641
0.980421206246173 -0.04511032867630412 0.2481853648722344
0.5071008042255433 0.096430961082854 -0.3866396805431937
0.296327024772237 -0.4024792216267825 -0.4330402784129179
-0.7529067382905471 0.8408784279107944 -0.04625360858345352
0.6949935687146249 0.3813500805123121 0.3345515843978497
0.7157242460281902 -0.8988049916225361 -0.2134414576283779
-1.023085625094207 0.4089504809585601 0.1606052898901994
0.5490008772626399 0.7853423681868696 0.2466873367678799
-0.1909621723761098 0.4030785850574715 0.3869919903221132
0.4225393606867179 -0.4175679662251283 -0.3858729250524733
0.5737093065165404 -0.933992813615166 -0.1705280225619868
-1.009099959835523 0.4829490789145449 -0.2051756454855723
-1.085817199888774 0.4424534292523045 -0.1953460053565647
-0.6739589927263823 0.6058433469842618 0.2905377205153076
-0.4973884314049959 0.7054726416184703 0.2922083781727549
-0.3928377286864249 0.4777231733513252 0.4679174530773638
-0.7374577686175627 0.8300859565658372 0.04241097877682712
0.9125330598429485 -0.6515619421751536 0.06023007686965117
-0.3844598601331721 -0.3141518623699616 -0.382245497623393
0.9098187913089857 -0.7495510660341878 -0.1004858877219927
-0.2892897944053808 0.5474718165075249 0.3813221020171254
1.17339724838023 -0.2989365844558005 0.1826807754862169
-1.192490183410953 -0.3856536702877498 -0.07720580149967587
-0.3163636784311867 -0.2716439618482387 -0.3955567218832336
-0.0274738990847758 -1.191967629555792 0.02235218322028096
-0.1788046874186119 0.9780901269983169 -0.2129335253525503
-0.5815053814013623 -1.059163704873981 0.1337774934731083
-0.3250317132896514 0.4549599036012854 -0.5822046695458937
-0.09946122821218213 0.6707042559021 0.3726534211067153
0.3707956495386868 -0.817521578425524 -0.2850082838818646
-0.866946279469469 -0.6127377880960674 0.1480101561078597
-1.122878144955327 0.2972921244724144 0.06907254572816546
-0.6645022040681179 0.1420299546898176 0.3305977331151568
-1.110227438602642 0.2178331632015488 -0.006267655039625526
-0.09998717723407451 1.014468091494912 0.4679830356737357
0.1088616623463333 -1.241064371407539 -0.01895581158166682
-0.2565651279450161 -0.7146271525121636 0.3053380014261472
0.6276092153114665 -0.3038766286157049 -0.3369852012571599
0.8003558770827639 -0.964706121362358 -0.1336402709910142
0.2224446309816979 0.9532917039581656 0.1534823517474835
0.646994892629849 0.8463619804359899 -0.1271687047429781
-0.2649902131825207 0.3793355489883594 0.4035335903631442
0.782129512836503 0.05202157854696191 -0.2885383324414661
-0.8666671403273913 -0.7137615670840599 0.09656321677134523
-0.003218193191000392 -0.6821542996766624 0.4576456416874065
0.5449367687674983 -0.8359583710184231 0.2168077784620816
-0.554234526782605 -0.02461569857165291 0.3653106373329392
1.139246361273655 0.2971401636721394 -0.009637423842872429
-0.1713199273818397 0.5291583243444411 -0.3953579251173781
-0.1733090472322956 -0.1905235859229074 -0.436184775531304
-0.795567849285349 -0.09463691073290126 0.2933236059487211
0.5060667797909892 -0.8767731666546911 0.188675630439867
-0.03527314534519552 0.6838847281516895 0.3825908333383515
-0.5710677377626964 -1.078318361853173 -0.02730432559560834
-0.2142786970375564 -0.02843390025225776 0.7296285141156086
0.3080735327652334 -0.2564005195432271 -0.5185663815468622
-0.1146621780890925 -0.9167112369909414 -0.3321884759060167
0.1801330827521453 0.472878216832836 -0.3821635217840099
-0.001047337447135482 0.6202176032080806 -0.3661967477180884
-0.05534292029715531 0.5141293202778275 -0.3779077700215645
-1.032094222463719 0.1013610824392373 0.1290830003151222
-0.3192409393496947 -0.1808631036878701 0.5479692103248995
-0.2591883878408648 0.6016342150907013 -0.3842712284893939
-0.9579853679079213 -0.2258817848070934 -0.286444378686233
0.8803334690799177 -0.2719209976955198 0.2788119087796013
0.5717204636262924 0.6181708306566116 0.2824091460537039
-1.075118695218314 0.2048995731408964 0.07643960242467482
-0.1820061734859119 0.9946479347058879 0.04991977187681947
0.1754819752957251 -1.119574480250728 0.06101022438719286
-0.5984501051125726 0.4855421346078435 -0.4638122027260861
-0.001957028645213098 -0.3722343647589922 0.4193961948612904
-0.07454855011563802 0.3995935912298369 -0.3992709253044726
-0.02561397474010352 -1.011685147505463 0.1626931892807762
0.07453863344341043 0.3302471101975213 0.4016981065399535
0.7626436399217029 0.926985564645705 0.03890984985704509
1.24656884868339 -0.2270065347020011 0.1040711156117343
0.1228865900613002 -0.4198011595134474 -0.4537289090939979
0.2085959729848783 0.4057745766308273 0.4443315462927472
0.9533922346591506 -0.5663983517787116 -0.04325173776527896
0.7122999613764003 0.4134584579655382 -0.3862376077489166
-0.07147268068730475 -1.198175012459397 -0.02485449169071387
0.1736541152077093 -0.3619126977965297 0.4044358771921411
0.7160451087358273 0.2590255597523883 -0.3293895768795291
-0.3896842195432749 -0.9030747809667529 0.231249458637084
0.118819994817956 -0.4749076834638259 0.4495567211568599
-0.08114455331826027 -0.1165761396998581 0.6012668648878257
0.9340869196331267 -0.4628011969319303 -0.1826888868806165
0.03895335660996837 0.8092154123704068 -0.4039629539251256
0.4818673263102727 -0.3936390323158118 0.3287693149517291
0.05380508929897619 -1.013908306206159 0.1686148928694794
-0.8890156533842462 0.4083550247331886 -0.2480354930421014
0.9469497455135112 0.5985987476916868 0.05667237547412449
-0.3959994173355833 -0.976846449667765 0.1732817693916824
0.9235914217448815 -0.3698687809272934 0.2425901686610765
1.085506783691255 0.1068482064253553 0.07349224190262259
0.143961749433614 -0.1602654463774079 -0.755951951495142
0.1165217856933812 1.074535679140081 -0.1724218395839475
-0.8072393390635285 0.4381927179804272 -0.2564553980386192
-0.4644247809649841 -0.01720583710355415 -0.3886231630805306
0.2185885822698837 -0.02964145432256584 -0.6658876989441492
-0.04815212524249555 0.9574695804603006 0.4953174630232797
-0.06657893672901073 0.1863495424923373 -0.4254863205315716
-0.8289242842190844 -0.09548568627585829 -0.3140440459754656
-0.1359314286682285 -0.1648437261718903 0.6543068568413279
-0.3996671968722363 0.02538121750812016 -0.4043786268717076
-0.8103526100420324 -0.3182705866493845 0.2864656008245232
0.6978077569413045 -0.09674941596452624 0.3146911902284629
-0.1975787846696289 -0.2424660853612926 0.5223176156476829
-0.7492709271866123 -0.7435471564085931 -0.2322327805944455
-1.026670669132701 0.585893938204897 0.02819122534390183
-1.006294655403984 0.01732682904637063 0.1871870851901752
0.6216404100257599 -0.6518605614930076 0.2625998380709482
0.6036041871422599 0.8339124438410684 0.2340744941960693
-0.6453704236299089 0.8641553768400712 -0.1959148353082994
0.06449963428505476 -1.272500442977149 -0.07318568146246904
-0.2421865026170276 -1.052832758909571 -0.1651026007062134
0.8877797624200694 -0.9272804729586037 -0.05612615479541404
0.8795592275726315 -0.9199149681281494 0.05782840216550396
-0.6563735135382669 -0.8728303871278025 0.2655502649081866
-0.4747536282498867 -0.8225422673858348 -0.2963430682949373
-0.4448171353427822 -1.01627748445895 -0.1460430585388475
0.9622323080322578 0.3029848096140852 -0.1850969862686016
1.076922914161039 -0.05556591440810783 0.2062913790000402
0.8528244816204605 -0.6205046639104629 -0.1883968609925185
1.025454303392554 -0.4968047549424409 -0.02065624979849882
0.2543247634367639 0.8182815738369211 -0.2983374191612959
-0.2874112510116275 -0.3950840601622486 0.385730971362139
-0.1670466875935932 -0.7275154484177375 0.31803198893686
0.3369960804759911 0.293444122372819 0.6014961054092314
-0.07311834947868374 -0.988542407542501 -0.3284375310767397
1.136669596401114 0.4617797592357892 0.1657512023904389
-0.9131831794357623 -0.1484381209696126 0.2754356915078138
0.7676829757328203 0.6551376379064338 0.003018004672117108
0.2679669680932721 0.9756055413622612 -0.03742090807733092
-0.1781006519896408 0.9919273565242374 -0.1284097653644808
-0.7046316922361527 -0.7140607162960805 -0.2646519899729312
0.5135994615259643 -0.05278873243777289 0.3525426491214156
1.095643458378657 -0.198300336456813 -0.2114162952764908
-0.7386476168199675 -0.5417255054438274 -0.2825084228480273
[...]
POINT_DATA 2562
SCALARS x double 1
LOOKUP_TABLE default
0.7061263156316381
-0.8302125117484082
-1.024067581711595
-0.4958151859968323
-0.1856949847834629
0.3914607965378485
-0.4913789479244944
-0.3327155382770305
-0.8075767228872225
0.2474038918717662
-0.08684388514999204
-0.7498417077373801
0.07982685408720422
0.6056442441438415
-0.8850818121007817
-0.734100508428124
0.2248618139202773
0.2033573714707483
-0.8524634635242548
-1.114341207121653
1.041041500565095
-0.5962505543354083
0.5056504162140127
0.6828842428002752
0.3803292260335096
-0.1089686069856479
0.3216139960593824
-0.2946470182422285
-0.2731472006801712
-0.02145654925979396
0.980421206246173
0.5071008042255433
0.296327024772237
-0.7529067382905471
0.6949935687146249
0.7157242460281902
-1.023085625094207
0.5490008772626399
-0.1909621723761098
0.4225393606867179
0.5737093065165404
-1.009099959835523
-1.085817199888774
-0.6739589927263823
-0.4973884314049959
-0.3928377286864249
-0.7374577686175627
0.9125330598429485
-0.3844598601331721
0.9098187913089857
-0.2892897944053808
1.17339724838023
-1.192490183410953
-0.3163636784311867
-0.0274738990847758
-0.1788046874186119
-0.5815053814013623
-0.3250317132896514
-0.09946122821218213
0.3707956495386868
-0.866946279469469
-1.122878144955327
-0.6645022040681179
-1.110227438602642
-0.09998717723407451
0.1088616623463333
-0.2565651279450161
0.6276092153114665
0.8003558770827639
0.2224446309816979
0.646994892629849
-0.2649902131825207
0.782129512836503
-0.8666671403273913
-0.003218193191000392
0.5449367687674983
-0.554234526782605
1.139246361273655
-0.1713199273818397
-0.1733090472322956
-0.795567849285349
0.5060667797909892
-0.03527314534519552
-0.5710677377626964
-0.2142786970375564
0.3080735327652334
-0.1146621780890925
0.1801330827521453
-0.001047337447135482
-0.05534292029715531
-1.032094222463719
-0.3192409393496947
-0.2591883878408648
-0.9579853679079213
0.8803334690799177
0.5717204636262924
-1.075118695218314
-0.1820061734859119
0.1754819752957251
-0.5984501051125726
-0.001957028645213098
-0.07454855011563802
-0.02561397474010352
0.07453863344341043
0.7626436399217029
1.24656884868339
0.1228865900613002
0.2085959729848783
0.9533922346591506
0.7122999613764003
-0.07147268068730475
0.1736541152077093
0.7160451087358273
-0.3896842195432749
0.118819994817956
-0.08114455331826027
0.9340869196331267
0.03895335660996837
0.4818673263102727
0.05380508929897619
-0.8890156533842462
0.9469497455135112
-0.3959994173355833
0.9235914217448815
1.085506783691255
0.143961749433614
0.1165217856933812
-0.8072393390635285
-0.4644247809649841
0.2185885822698837
-0.04815212524249555
-0.06657893672901073
-0.8289242842190844
-0.1359314286682285
-0.3996671968722363
-0.8103526100420324
0.6978077569413045
-0.1975787846696289
-0.7492709271866123
-1.026670669132701
-1.006294655403984
0.6216404100257599
0.6036041871422599
-0.6453704236299089
0.06449963428505476
-0.2421865026170276
0.8877797624200694
0.8795592275726315
-0.6563735135382669
-0.4747536282498867
-0.4448171353427822
0.9622323080322578
1.076922914161039
0.8528244816204605
1.025454303392554
0.2543247634367639
-0.2874112510116275
-0.1670466875935932
0.3369960804759911
-0.07311834947868374
1.136669596401114
-0.9131831794357623
0.7676829757328203
0.2679669680932721
-0.1781006519896408
-0.7046316922361527
0.5135994615259643
1.095643458378657
-0.7386476168199675
0.5822448562358069
0.6076965892678282
0.02985697201483949
0.3967536217692048
0.2724045808998717
0.129183332029891
-0.9543640747732811
0.5233768056015138
-1.179120466986669
0.3983748825498762
-0.7347313345148131
-0.8369247758842708
-0.3775374655019713
-0.6522420726064613
0.5693769614446621
-0.04132371376315109
-0.03159201158625007
0.5361739989534979
0.0804588339806909
0.7426343566637797
0.0008364816746796353
-0.7315206130076639
0.2951787497884036
-0.3373553700647947
-0.9560233984109285
-0.4278476408266784
-0.5621257369356268
-0.8463349017163097
-0.4880693584670515
1.092656302803571
-0.8186426323860198
-0.9434228280637343
0.9195115113508984
0.8888532258709612
-0.3688822370637592
0.6886242646485892
0.7850081605833304
-0.5312306391471036
0.8325024953876574
0.3104251632477079
-0.02729844613763977
-1.091079671862941
0.361706399335408
-0.2647696126244909
-0.784437887417668
0.5105019529552366
0.4534809772135336
-0.4296491146403459
0.7449551749845624
-0.06760253428620519
0.7519586802677141
0.7343922362811089
0.7289764080371712
0.4341090009203798
-0.3732148637221867
-0.9283438494877149
-0.8528266285737215
0.2740926047252301
-0.8969672337405352
0.04387126048714273
-1.251810069032795
0.1346174700906015
1.110648387366918
-0.1428442122677059
0.3745683643473989
0.1865736507065726
0.405180883196381
0.0712135773351722
-0.8703905382306197
-0.2210632797853852
-0.3502529376445896
0.8239915114030064
-0.7912971438734058
-0.2515844324887688
-0.5838617977798801
0.7562923662026739
-0.2265770938386765
-0.1023459976289582
0.6931317056923794
-1.02566950907839
-0.7645189822752206
0.030074655703931
-0.03090929976870273
-0.2398876062421191
1.216718764664011
0.6552635960931616
0.06019973408464859
0.04880524535368721
0.5664624445078725
-0.1767317894354141
-0.2179290724056699
0.09313134477178031
0.9190882334982378
1.19806131202208
0.2846673725393574
0.1710240453850013
0.120756988335734
0.1368594693311413
1.032541716619246
1.137708734487804
0.2428669495693793
0.5529594704723196
0.9771766737121442
0.7517939218653286
0.2560537347496176
-0.6950304998887946
-0.9359729376778684
-0.2123052520673722
1.079339527942833
-0.7297731379072342
0.5133268550738898
0.5237545518909535
-0.4887313928620539
0.9038757387365088
0.6848983195999885
-0.4484099512396101
0.8943991184221961
0.807629580600579
0.03787927584230025
-0.3458226392053564
0.220940812917124
-0.4639314939528002
1.048182317310427
1.040364099626663
-0.9072484789213277
-0.8904921585968634
0.2320020746544386
1.049173001217972
0.2819505321340292
-0.5931390154892549
0.4715138295044969
0.707680723569956
0.8140473470020794
-0.381216073961413
1.070528392584106
0.17669968232176
-0.03661474906903184
0.4519700753541024
-0.1192641102902777
-0.04069033692524399
-0.05312319105230995
-0.672738634013502
-0.6341042710448433
0.6856285776567351
-0.5445002714077862
0.6334173195913666
0.8114611272069865
-0.6393108928516996
-0.6196599744051144
-0.2778783385340347
-1.162897383587539
0.6306678524340885
-0.6866238231664842
-0.8609466553955401
-1.151481109423855
0.8158867859791946
-0.8911830524822525
0.5661887626480644
-0.2912790095809428
0.235099268474295
0.565652596175139
0.0872215507573552
0.004905662433822153
-0.3106301900593369
-0.07727531447017552
-1.026770223432786
0.5169677915910698
0.9406741093992133
-1.052657962020627
0.347127269479747
-0.8203237935984563
0.02329974119945078
0.1998110151507016
-0.1016930912687438
0.3994723997507594
1.035547943266522
-0.7420333995638105
1.083427040212232
0.9454688175136244
-0.1571347461574806
-0.1059769666492255
-0.4928958434127414
0.4575493384129792
-0.1700414086539111
-1.056174342510369
0.8921605773537971
0.7059975581947138
-0.962225666732052
-0.522088796774748
1.173844675245278
1.015465304704163
0.4739312855068217
-0.4239924547826939
-0.2336179922201409
0.7244167214184247
0.1746433048398735
0.7495222370995828
-0.2519104016220941
-0.5141997210225963
0.3305991291681826
0.3895689399294218
-0.4219794889807713
0.1277587224851859
-0.1077521424714601
-0.1961124110660034
-0.7502729669620588
0.9244500845857776
0.5599308803296131
-0.06985418288235511
-0.4382000281741292
0.9204878036830868
0.8793516623278368
-0.7769555362249178
-0.7466750751148302
-1.110359783272072
0.7966635576277294
0.09289079717129571
0.1407226868259896
-1.161293135663624
-0.7353093927170512
0.003137009499047031
-0.6798037425154938
0.8268637768653836
-0.4840382154353782
0.03065689566150907
0.6744328899998084
-0.7227288446622527
-0.6466090216412382
-0.2021053601615934
0.4363819888176265
-0.2509117780557412
0.1550351034866465
-0.8055587941836312
0.04219094541372483
0.7596287170161568
0.001066716196681874
-0.3219774177806039
0.0646312340620918
0.9119702697681451
0.8000292312968997
0.2081042945985613
0.7430521127911182
0.6146845057902326
0.569900536861886
0.4625711576331334
0.2581822685190305
0.2072150377626155
0.6762298253085333
0.6234070091283124
-0.8516625897599541
0.4490237413840106
0.2818082195900516
0.670028575173622
-0.08139366973149662
-0.3323135044506877
0.471675201330166
-0.8575339851350502
0.1727329459543332
-1.169319251058142
0.4229595394753207
0.6822856255984693
-0.4221211268587025
-0.3392554511256767
-0.7023059230525477
-0.3572451286181482
-1.252787047156651
0.0724544564770719
-0.6539878079598982
0.05261766063707182
-1.163906590469121
0.8642419341730172
1.184924890505934
0.7420884223628627
0.6713918222875971
0.1419185567150346
0.289285733312125
-1.011659536101219
-0.3601265140733655
-0.8895923447919605
-0.2630235154266675
-0.4280376497236236
-0.1928061899488431
1.020156777177764
-0.1739366628671104
0.9359193948234447
1.208550569403108
-0.8358106474387684
-0.5276118456565418
0.5232806469328418
-0.5918737727266279
1.049851945354952
-0.07394187207266374
-0.5445067987069053
0.6021565872423216
-0.5912036366790688
-0.6231406077788099
0.5456585806679638
-0.5574696317807879
-0.8330175180397164
0.5659537435512578
0.6436316541200113
0.4522420906151391
0.6505161749426344
0.3543667592057356
0.6918550689301159
-0.4642149217535668
-0.1559577452234438
-1.199250673394148
0.7787343483290278
-0.03059560132139426
0.3654677994637527
-1.045537036550096
-1.009657248597051
0.7365485003736199
0.5010861812760177
-0.2471908207956997
1.174839873375881
-0.08723988650637265
-0.2690596752413382
0.4042584144792171
-0.6957813955841196
-0.6822475848823203
0.9287610403722298
-0.3757987110639976
-0.5663370119754575
0.4527040365111093
1.029653885695143
0.4101829318908697
-0.8143604147834661
0.5447319927444078
0.5986778927905394
0.9604924002340555
0.6542880882820409
0.8610373743307044
0.8622112330654782
-0.8155808855920877
-0.9626138502156653
0.1460799942034387
-0.8909718422961029
-0.8946343834626355
-1.08698498397322
-0.8284505427632183
0.03129887271067956
0.7561388571736145
0.4309793650265674
-1.182659938627868
0.9359563486565086
0.08827075388925344
-0.2988556756128057
-0.5289756234448021
0.1852919047872367
-0.9619910906985467
0.7626890983567856
0.7081410422431733
-0.1269291740513299
-1.027720239973804
0.7316742390165614
0.573356258728795
-0.3443132730938105
-0.7881994313584076
1.016848674806842
0.8107378184216452
0.1181919224567432
-0.02967701652810634
-0.310322173142587
1.072060640560782
-0.7462352514598197
0.3243086373292141
-0.3712777110945587
-1.059219723599577
0.8686614422885698
0.03422628841928605
0.4726613899822639
-0.192226613231828
-0.6203845832956043
-0.4814828755814854
-0.1494325151257894
-0.8163164606088592
0.06996836103352587
-1.000930006677487
-0.3417178506216845
0.2736218340336475
1.114723409607074
1.262435657767646
0.5425255165520406
0.6171378618762322
0.1822588963276438
-0.5788989654011658
-0.6816566043961286
-0.03120541382912519
0.7832407656056423
0.5936263556820355
-0.2649014391708734
0.2921408087031562
-0.131740795437937
0.6331951688651275
-0.1004486952735126
0.1799830186110809
-1.233618474029749
0.8463183724255697
0.6995347858439437
1.213523361445309
0.6691086762670644
-0.05726037270778103
-1.055497301389312
-0.4878283841398326
-0.2889348614897866
-0.1382529278891671
-0.2110521846625588
-0.1074228315135108
0.7265248354185688
0.05335468628935388
-0.8126548341089656
-1.228145194725176
-1.055309485191555
-0.7147233798690735
0.7611594944717799
0.8776758349235723
0.06264555970381905
1.010064541808461
0.8334184898265887
-0.8911415037525371
1.019461407841647
0.7693121112001429
0.09892226018441878
-0.002002262200282612
-0.1923146078496916
-0.7522114446681915
-0.5907010566491535
0.0524851610980577
0.502270620852606
-1.00449300083815
0.2578355224250952
0.7237530696064242
0.05773944025086475
0.5406505889463562
0.1986688072134795
0.1333545039166243
0.428668173660833
0.2859781083748605
-0.3294505258153372
-0.0338066765584446
-0.1373166107364511
-0.3939790911621077
-0.595210680977453
0.2205449030219228
-0.2561056635212984
-0.1885211640566282
-0.0773472620202993
0.2151880853625521
0.3248080013959335
-0.5961006543490043
0.7546265399119078
-0.1669786182156451
1.071397604186962
0.287024779082226
-0.5296614442540342
0.8946150674957922
0.3255137239220756
1.010726887059187
0.4140234172485562
-0.626437494259403
-0.4650386879595382
1.13278538993488
0.4976137930574966
-0.3363599354254043
-1.111355945215927
-0.1934154676260958
1.184898520078305
0.8693640829837344
-0.1123576908181917
-0.5848693501598666
-0.1554581949720964
0.003386451462025561
-0.6337488923500295
-0.4379850373071173
-0.2933690986214391
-0.6753551545965775
0.4556645251106389
1.089173838037171
0.5508479028682041
0.3741361893531642
-0.4841288949113134
-0.3959557795992294
0.8944979045313767
0.6825425855623986
-0.8686923440179748
-0.5553350575854124
-0.8738453262887814
1.109109173588153
-0.7059258933840485
1.017269767166578
-0.9043532425137099
1.081731028109498
0.6612299976876036
-0.9503506117171513
-0.9519750632090282
0.01391519618954405
1.019481847222123
-0.1738828124621545
-0.8003524342580774
-0.961501171417306
0.7454352048340807
-0.9392697729543529
-1.118282396933932
0.2532731137504174
-0.5230292581918763
1.017657609015644
-0.6413517198399779
1.067568977250492
0.6038564903926632
-0.2137606818996716
-0.6718122060125338
0.1341431451812847
-0.3813782207375941
-0.7160902973999962
-0.9207823070701691
0.7824835691817638
-1.075375405677842
-0.3208687746409595
0.8391139070182154
-0.8794438468753625
-0.7641640103100176
-1.069944770057458
-0.8059104015799098
-0.3392158686544701
-0.8198048433805096
-0.6090009669284226
-0.7121232887397291
0.3728668834817866
0.9523514444254767
-0.6486088530021544
-0.1847923408543848
0.44939118177946
-0.6179171699824987
0.1610538343100588
0.07411520672737484
0.4971623579128128
0.6806688147822462
0.542354944805612
-0.2000174357667957
0.4989995898439346
0.08209056175966359
0.658789470731124
-0.2593622112427397
-0.6840036250677646
-0.001586641029512206
0.6209333787314828
0.7296484246636301
0.5726263513020812
0.2841339474250693
0.3369460004711544
0.6195896813446711
-0.01119552763236587
-0.3944451100291226
-0.9658644686995368
0.7833044900658949
-0.03298320826467277
-0.685999797162328
0.7402560821598111
0.6468709680103172
0.3952737285311894
0.2627123452517352
-0.1778368095721821
0.157770003441965
-0.09966370702321968
0.2256426854245928
0.1687130688508883
-0.5628211338834309
-0.7215671247351881
-0.07004814684077937
0.646269869587488
0.4173103574991532
-0.4689416570511822
-0.3712358796239055
0.5376669722090435
0.9176957447829411
-0.4631995035148738
-0.2955769370924176
0.023736290905082
0.9281898715566744
0.1114336545378097
0.1005113307001269
-0.8359030275601459
-0.3901566724995891
0.294406974847432
-1.111342434427452
0.05635968870046655
0.7162262395432619
0.8773405596149157
-0.4216633642833116
0.9497074854891662
-0.9884204500480864
0.8190683276073966
0.6140644522761421
0.8166106635780936
-0.7041578059270924
-0.20107126809031
0.1440708440589326
0.4623568237612397
-0.2753387312399054
0.4263465905911942
0.07699243407289352
0.2054645366680876
0.681724501661981
-0.4667724080520211
-0.1997442831286619
0.05839982090905364
0.5927033305436495
0.07139300302808814
-1.236975082830736
0.06713314779987475
0.360587531774002
0.2011892992499461
0.1448219386541153
1.259926121782466
0.177119594105174
-0.8743674512889973
0.1828422778683906
0.1714885693618946
0.1820993990516624
0.4620195460811264
-0.5598997295419776
1.01258406411362
0.8420886688073167
0.5756877173287459
0.2721623621594527
-0.8678992453971871
0.4145827173574562
0.6997558249889859
0.3569652023008861
-0.4161465382062379
-0.9010193793630422
0.2613086158752231
-0.09894863430789021
-0.8857290303330645
0.3169968898666595
0.83177147237057
0.8952534483076527
-0.6084985240348061
0.9392089031717352
-0.5772407871941435
-0.6039009165399206
0.4525292096183346
0.8795447675000809
-0.6902968681900636
0.3315587178248632
-0.6023698474486936
1.108770095833824
0.7254737583387606
-0.5017287243561559
-0.5354314869753506
-0.2793771344045072
0.06286558898362297
0.8305752046576464
0.9692727502634778
0.8155374087634344
-0.9024910934204577
-0.4113036130635916
0.9944071541849938
0.9694882376573251
-0.08067822954356824
0.9377850758196038
-0.4777255644646712
0.5001412898900979
-0.03527912054972769
-0.7443341861306467
-0.5529453485472944
-0.5532190823995353
-0.8073147748316659
0.4269424647832791
0.2987421880405873
-0.1240572658448904
-0.9334816261974022
0.0322097119210789
-1.031384156233157
1.140357045070128
0.6496823347215367
0.721103933734322
-0.5719814973948375
-0.7049386355688356
-1.109547641054096
0.3255596011305235
0.2387365408407763
-0.6932028095746966
0.3538060333278332
-0.3240888917445408
-0.7706150499009395
0.0652475880477117
0.5709941061032573
-0.1600739051335437
1.23185567960263
0.3034140855835432
-0.7146836963768155
0.4281553905100581
-0.3164914859374697
-0.04335000000959104
1.23690257967869
0.4595584924962749
0.333620622976403
1.135877627790698
1.088835758941608
-0.7342037201570122
-1.205128438431881
0.3701033496492468
0.7997756989892405
-0.05930192418409404
-0.1506165931410908
-0.006433680027295838
-0.5856097754693058
0.5651079412646471
-0.8914892299028021
0.3155383253792104
-0.8007745658396136
0.7706513593402075
0.538001344344196
0.8178317504442773
-1.076181539753128
-0.5346153075343852
1.091169539579405
0.8604770368297713
0.7804337025245156
0.0820389426818629
0.4254495988946169
0.6793534716945031
-0.847653506369083
-0.6784398937254124
-1.033053113768069
0.2480097683472911
-0.2193446187665304
-0.4554921942620575
0.2044699564821767
0.1301727920269496
-0.7046959503675928
-0.0222163876936809
-0.1988185856309047
-0.2797353437411043
-0.09759405715109594
-0.4888732207805911
0.3312513561495771
1.12118904606586
-0.9481784974452002
0.3250966521421871
-0.7697567140949414
0.1637952388237924
0.5926380910794629
0.1115323248071674
0.2214342275250348
0.6474030080592537
0.03819156297802018
1.129012447871313
0.5940805804893153
-1.194638332507398
-0.1989974050500752
-0.3045508067572313
0.2161222101929165
1.158373176599098
0.9316663265091747
0.3070922899578858
0.8340532397066175
-1.16704741144645
-0.06662895223743738
-0.00704407591032215
-1.190706206761988
0.3633823700205236
0.4441739798310038
-1.237774963426285
-1.055318944085467
-0.9495912599283591
-0.8081806749571582
0.6979606938166562
-1.240207699463441
-0.3026613235118049
1.145827737103454
-0.2973542011609805
-0.1088243530609282
1.025597295287354
-0.4912294215656934
0.6933112877815546
-0.9264184577637644
0.1485669894977648
1.160984311636647
-1.164953357740234
0.7105000304793928
0.2024604102603261
0.05127405020918776
0.1787257048392745
-1.126212598053098
-1.061041772414699
-0.5850148790767241
-0.783105839757127
0.1247227964295196
0.3974376945370209
-1.170656072364501
-0.1984265531544797
0.6143345750349797
0.5631403137808025
0.134569576536639
0.7680708246149105
-0.3380577964575256
0.8255562644758412
0.2686868776239232
0.3171564377503395
0.6779464624217068
-0.504253379057336
-0.6695210505049113
1.0381690303913
-0.1358115927487559
-0.1318417620217418
0.1626146620540739
-0.3354019037596265
0.7597153473801819
-0.6649457905126488
-0.5545825033839857
0.6908578636713808
-0.4659120324453302
-0.2459990335159226
-0.3634569116082609
-0.237487638111097
-0.9729421431560378
-0.5425701547127953
0.53169016367088
-0.6893439406798233
-0.2932856748623166
0.101091401090348
-0.5524456273234349
-0.3144283655075321
0.4841015071371381
0.1765677357191492
0.6140406302752587
-0.5281100853550283
-0.9144004566517451
-1.154856784786739
0.1462406515617763
-0.9263825953237124
-0.6626208596843169
-0.03091890492744307
1.02591331454359
0.4975028371132567
-0.03626211089410342
0.3019174868732789
0.6567034791829465
-1.02305083818571
0.6589830250355476
0.6157527476667032
-0.7315942791039241
0.1028733275727254
1.029021415926265
-1.142200652839498
0.1929435158947616
-0.7847900546174307
0.7014042433890489
-0.06498459857621326
-0.2129397981758503
-0.9686481387465415
0.02179983018920775
0.7179956306408547
0.4617209066390081
-0.817166712202388
0.284077934945757