# vtk DataFile Version 2.0
created with he
ASCII
DATASET POLYDATA
POINTS 2562 double
0.7328461588999218 0.719593972550423 0.2129545105498457
-0.7740109663490553 0.5560394872536112 -0.05558012603871691
-0.9993555364792227 0.3488620893939559 -0.2764918647610193
-0.4221362097883551 -0.9125312662147058 -0.2103136971122355
-0.1912118596985982 -0.7942778553178057 0.2792861066004367
0.4328383767259164 0.1785352034699863 -0.697839729625212
-0.4057249501347878 -0.8277665753461892 -0.2512015265471786
-0.2842444511873253 -0.5476296007623269 -0.4264496951272725
-0.6580047753966692 -0.6794200174869872 -0.1264490533775596
0.2554382212799112 -0.8173624162205915 -0.2926510610153872
-0.05794490952928584 0.8816800360653085 -0.2844028951552844
-0.7191629168846401 -0.2155812161129876 0.3526490787540453
0.09933607874232646 0.1233641487755375 -0.5728282649870394
0.5799605790515462 0.733545069143142 -0.1605207523476884
-0.7541690555118997 -0.6116910605213332 -0.01139804182173489
-0.6266316266785901 -0.6601339508620793 -0.2147816719612327
0.2213443066712467 -0.6482180075135345 -0.3814373190933152
0.2192950142144315 0.05357185924351638 -0.6989688228148562
-0.7688516261478662 -0.3791615668431675 0.2570486557881124
-0.994700501076792 -0.01491789732563553 0.05468611271507873
0.9229610436070282 0.486832901308485 -0.05568602117304226
-0.623125606524312 0.580140382727567 -0.3394935103900613
0.4565037539733096 -0.9070692371778805 -0.1013978384416598
0.5750904467291058 -0.8692175967579069 -0.1041550137128258
0.3887982450423703 -0.6497426602862381 -0.4220989130987136
-0.109282854021471 -0.9534873707447052 0.1742138111281999
0.2820824592934328 0.4632998066290182 -0.4289399243626958
-0.2748191155220842 0.5204621881423542 -0.3992580916430983
-0.2969909105628299 -0.4507896270315255 0.4385862880641768
-0.02251920513118272 -0.9546978008536464 0.2949067764828029
0.9310360481063589 -0.03196267256877031 0.2922689716601836
0.4887147345721372 0.09516377436498344 -0.5113080580906643
0.2761342912159042 -0.3976191643702334 -0.4296765921409789
-0.7168210932274599 0.7572532129340294 -0.07727906586673539
0.693855440246066 0.34255261406703 0.3201318118077874
0.6870356621889716 -0.8791248369522552 -0.3011592518250073
-0.910996176143665 0.3409993846353058 0.1877139350488833
0.6322376511787987 0.8721815478119437 0.4401969219229542
-0.2144827294075514 0.4422032267647165 0.7373176432255441
0.4076346418075103 -0.413843567337772 -0.4017536747382351
0.5573877914703359 -0.9491131826139022 -0.2667281291749928
-0.9177571292193648 0.3677524190996481 -0.2081451022127464
-1.015248426955184 0.3525254621896829 -0.2216749789444507
-0.7653298506604481 0.6400802732317132 0.3592432566916027
-0.4712992124720609 0.6662521200514305 0.2700802409611046
-0.3168289555235682 0.4358801979110819 0.4781800753798546
-0.6785650657821496 0.7067706496599133 0.02372743035697477
0.905363567885521 -0.6313538009009521 0.1159772405296238
-0.3390627486637949 -0.3032900273504015 -0.4711538610188453
0.7553985257159535 -0.6262856273192184 -0.08797313077530299
-0.2454742578643831 0.5242968581902412 0.5072457829734291
0.913145545940685 -0.2741017310582759 0.1266250599037286
-0.9129110050097017 -0.3261186940517268 -0.07373274433934313
-0.2843225197595206 -0.276972984864731 -0.5090216125501086
-0.05535101578210951 -1.026245563613016 0.01897621155414195
-0.200762925092554 0.9286181788492183 -0.1494412447535035
-0.5235538035963075 -0.8994891875856468 0.1167529738375602
-0.3181587458599027 0.3833613490162919 -0.4983659484263695
-0.111638668487436 0.6007628085565789 0.4637408102552899
0.3897617853484201 -0.8255047876152896 -0.400406161385657
-0.754947273102859 -0.5669255218795031 0.1494273708894945
-0.958436349434063 0.1951888634981588 0.0371077011631696
-0.6469562335403332 0.1005203318909901 0.3605447923051481
-1.01679671798214 0.1444382843884499 -0.04029037445808237
-0.1103684788773366 0.9098875928561497 0.335433723197896
0.0701440228980708 -1.015192148315194 0.009893698334278299
-0.2752121642442576 -0.6903841210025256 0.3277528223167025
0.6082492168805853 -0.2843659944103046 -0.3659533793362903
0.6695896806110533 -0.8257398970500318 -0.1673752056985098
0.230960140530386 0.9160128725777269 0.1361747142920191
0.6047594223223983 0.7387479433421762 -0.1201913258697986
-0.2552263005513551 0.3951606077555872 0.6449747927874705
0.7753355872227718 0.02081434068151384 -0.3450052569929199
-0.7536665181289689 -0.638519873715548 0.09879744917607909
-0.02257199745725239 -0.6561510934380044 0.3862745520901948
0.4757105291697432 -0.7871628146721495 0.2272834284264048
-0.5415302606976958 -0.06951146731034365 0.4616939351123144
0.9838617908661382 0.2015740680012151 0.01484360348185995
-0.1533160256843204 0.5045680992536277 -0.4084554668559476
-0.1824665884456632 -0.2132885789358522 -0.5428347169149264
-0.78433878452593 -0.1207370831543871 0.3470422288695664
0.4446151133031477 -0.8563947321949165 0.2199151599613479
-0.05351012469231131 0.6051363937410864 0.4491555427737755
-0.4597600265841757 -0.8938846221256425 -0.04276528879786928
-0.2266560485144369 -0.06574003253013866 0.5509393804631029
0.2945295618710281 -0.2400003042138518 -0.4540668516832088
-0.1396054297711633 -0.8501390744343218 -0.3484068079034053
0.1703259514574263 0.4495568442267844 -0.4419101601140144
0.009703687418083631 0.5990156148005321 -0.3937661632324171
-0.04273369030115898 0.4915248716762112 -0.417540135170432
-0.9589779891634633 0.03257457745225616 0.1533887586081788
-0.3630984439044762 -0.2248341734871772 0.7608051889470534
-0.2519377939421266 0.5869566276206346 -0.3715142313629442
-0.8219407353228617 -0.2359885497631852 -0.2924136240206901
0.8025283443278235 -0.2970478926843238 0.3049819066683326
0.6591632726375177 0.6874782073329331 0.4395884589519689
-0.9568571970685997 0.1220012061712542 0.06520409114238405
-0.2411449135794228 1.136989716413789 0.1033501797685231
0.1698028740819616 -1.066578139084665 0.1219067561169892
-0.5662382967354486 0.4409109521665366 -0.3620947313121914
-0.004181123133398565 -0.3453460762506159 0.4634070512418242
-0.06240707113308878 0.3743121023150986 -0.4579398251041093
-0.02435800765516264 -0.9955179818492886 0.2119608132851827
0.024991652840716 0.345662738238501 0.5722289771153584
0.652291922489215 0.7773473584155666 0.06424233240817981
0.948322383880609 -0.1958530938037351 0.04563930453171662
0.07124598073631942 -0.4239431112160053 -0.5260927663385792
0.1388281400054458 0.3892445151886664 0.4800123311054274
0.8565388468963042 -0.5207949798442955 -0.01870705172614604
0.7521672809262098 0.4017298771875779 -0.3727776977024322
-0.1074741914726569 -1.058684910003672 -0.03974405481840022
0.1986658743060479 -0.3101435383763957 0.4995389301272904
0.7106994274052557 0.2331251303299252 -0.34587735679309
-0.3946844180338409 -0.8434838628393272 0.2400760774952508
0.1152274155729854 -0.4160396173635882 0.4450085357253635
-0.0779284350846918 -0.1182751924016727 0.5158180521373408
0.841623521060305 -0.4076725226345476 -0.2040510068427961
0.05758300482553824 0.7833722561455625 -0.3863070699690129
0.4814216489677742 -0.3697779275695232 0.4174887568651923
0.05286164720484762 -1.056799189342149 0.2554603764662727
-0.8607192686943826 0.3413750688447976 -0.2791391381895644
0.8553923423710046 0.5206053156904065 0.02149012881855608
-0.3794287323292479 -0.8858332204316025 0.161864912604323
0.9028886119442688 -0.4055489818634063 0.3230801904977074
1.057400490576544 0.08059997165343304 0.1184192086009885
0.1241205863055017 -0.1322121166611787 -0.5140985520520003
0.137711733336273 1.090940942317743 -0.1675064300737941
-0.7673158768157137 0.3778132413672942 -0.2611569145347749
-0.4385541191192889 0.003393530988889567 -0.5037083116641073
0.2187340558843998 -0.005031204936738446 -0.609000816835242
-0.06788093576928739 0.8334809240732197 0.3283621085367301
-0.0713034856415713 0.1860316280457207 -0.5124603317953922
-0.7355330148754384 -0.09194253564328718 -0.3204338046909669
-0.1648530257183395 -0.1607232116506229 0.541412118316736
-0.399385585858564 0.04066461776932573 -0.5663328882010653
-0.7646409310077456 -0.2998751955240907 0.3151565948479699
0.6519999322144991 -0.1121895954198097 0.3841647261722496
-0.2319311748908071 -0.2642678797759437 0.5759217437694875
-0.6948914030536814 -0.6406996305451594 -0.2822062542281863
-0.8703932160073482 0.4472525505134476 0.05269646394003435
-0.9904231611542661 -0.02958861982125017 0.24968597097094
0.6266749084785226 -0.6161893926130602 0.3110881716592295
0.6717499139088758 0.8892962554240613 0.3792616176075849
-0.7298946634972112 0.9069427222105849 -0.2886055770537946
0.01613370034878227 -1.014648061554921 -0.04874657077853612
-0.3030149565281434 -1.144145831592724 -0.2755950600749278
0.6898507781977263 -0.7338350035449779 -0.07070588010791094
0.6959409479165134 -0.7136024286831941 0.03566101131308542
-0.6944134025137506 -0.8957882844346378 0.3435278726119148
-0.3936992682502233 -0.721941273231136 -0.2867337657271857
-0.4144552727539433 -0.9882080276190325 -0.2048741774350598
0.8899375284406009 0.2745377235917414 -0.2127519202978079
0.9790112063955394 -0.038285052081807 0.2242721830979545
0.7417888581871187 -0.5536358817000233 -0.1948594514194114
0.891245064356338 -0.4655031906190567 2.140451772148379e-05
0.3073901674512898 0.9081076948449524 -0.429099978784692
-0.3198956703272539 -0.3851005074758195 0.5016628935805107
-0.1848227227285097 -0.7090822874837234 0.3281930510869783
0.2977897735973783 0.2353380389476323 0.4670939714154299
-0.1089166863523853 -0.9083618322097335 -0.3350622920731812
0.9724069768428658 0.3195069681618758 0.1545811936131892
-0.9302552271532606 -0.1740469003035315 0.3742433333275192
0.7917638487086318 0.6305309390821477 -0.01370633134759789
0.2820247954529626 1.036512019925412 -0.07454017351705353
-0.2090221762989554 0.9914228219909803 -0.07252828230627054
-0.6623555796979091 -0.6220235753879706 -0.3170501449885315
0.5003361095046832 -0.08818528312880686 0.552008228767871
1.118901534397119 -0.2209915439091116 -0.3238923382366417
-0.7612906584500114 -0.5616151367466141 -0.457264799286092
[...]
POINT_DATA 2562
SCALARS x double 1
LOOKUP_TABLE default
0.7328461588999218
-0.7740109663490553
-0.9993555364792227
-0.4221362097883551
-0.1912118596985982
0.4328383767259164
-0.4057249501347878
-0.2842444511873253
-0.6580047753966692
0.2554382212799112
-0.05794490952928584
-0.7191629168846401
0.09933607874232646
0.5799605790515462
-0.7541690555118997
-0.6266316266785901
0.2213443066712467
0.2192950142144315
-0.7688516261478662
-0.994700501076792
0.9229610436070282
-0.623125606524312
0.4565037539733096
0.5750904467291058
0.3887982450423703
-0.109282854021471
0.2820824592934328
-0.2748191155220842
-0.2969909105628299
-0.02251920513118272
0.9310360481063589
0.4887147345721372
0.2761342912159042
-0.7168210932274599
0.693855440246066
0.6870356621889716
-0.910996176143665
0.6322376511787987
-0.2144827294075514
0.4076346418075103
0.5573877914703359
-0.9177571292193648
-1.015248426955184
-0.7653298506604481
-0.4712992124720609
-0.3168289555235682
-0.6785650657821496
0.905363567885521
-0.3390627486637949
0.7553985257159535
-0.2454742578643831
0.913145545940685
-0.9129110050097017
-0.2843225197595206
-0.05535101578210951
-0.200762925092554
-0.5235538035963075
-0.3181587458599027
-0.111638668487436
0.3897617853484201
-0.754947273102859
-0.958436349434063
-0.6469562335403332
-1.01679671798214
-0.1103684788773366
0.0701440228980708
-0.2752121642442576
0.6082492168805853
0.6695896806110533
0.230960140530386
0.6047594223223983
-0.2552263005513551
0.7753355872227718
-0.7536665181289689
-0.02257199745725239
0.4757105291697432
-0.5415302606976958
0.9838617908661382
-0.1533160256843204
-0.1824665884456632
-0.78433878452593
0.4446151133031477
-0.05351012469231131
-0.4597600265841757
-0.2266560485144369
0.2945295618710281
-0.1396054297711633
0.1703259514574263
0.009703687418083631
-0.04273369030115898
-0.9589779891634633
-0.3630984439044762
-0.2519377939421266
-0.8219407353228617
0.8025283443278235
0.6591632726375177
-0.9568571970685997
-0.2411449135794228
0.1698028740819616
-0.5662382967354486
-0.004181123133398565
-0.06240707113308878
-0.02435800765516264
0.024991652840716
0.652291922489215
0.948322383880609
0.07124598073631942
0.1388281400054458
0.8565388468963042
0.7521672809262098
-0.1074741914726569
0.1986658743060479
0.7106994274052557
-0.3946844180338409
0.1152274155729854
-0.0779284350846918
0.841623521060305
0.05758300482553824
0.4814216489677742
0.05286164720484762
-0.8607192686943826
0.8553923423710046
-0.3794287323292479
0.9028886119442688
1.057400490576544
0.1241205863055017
0.137711733336273
-0.7673158768157137
-0.4385541191192889
0.2187340558843998
-0.06788093576928739
-0.0713034856415713
-0.7355330148754384
-0.1648530257183395
-0.399385585858564
-0.7646409310077456
0.6519999322144991
-0.2319311748908071
-0.6948914030536814
-0.8703932160073482
-0.9904231611542661
0.6266749084785226
0.6717499139088758
-0.7298946634972112
0.01613370034878227
-0.3030149565281434
0.6898507781977263
0.6959409479165134
-0.6944134025137506
-0.3936992682502233
-0.4144552727539433
0.8899375284406009
0.9790112063955394
0.7417888581871187
0.891245064356338
0.3073901674512898
-0.3198956703272539
-0.1848227227285097
0.2977897735973783
-0.1089166863523853
0.9724069768428658
-0.9302552271532606
0.7917638487086318
0.2820247954529626
-0.2090221762989554
-0.6623555796979091
0.5003361095046832
1.118901534397119
-0.7612906584500114
0.5760898279786967
0.6356213531360875
0.09354772518998536
0.4001315833884854
0.2827343950741066
0.1273243054868815
-0.9133727213056588
0.4838937623980338
-0.90672049910519
0.434160255785305
-0.7248160687892351
-0.7415901454229076
-0.3610053162037714
-0.5935713154164671
0.5449132609359724
-0.05762990648319517
-0.07105447404528102
0.5797705212090984
0.08602662460406001
0.7831666028807511
0.01408963955958882
-0.7182152394944969
0.2631094247504997
-0.3275586453522743
-0.87733869476047
-0.3744691881546117
-0.5348714532090488
-0.6795512131757664
-0.4407063972589119
0.9988469533740556
-0.7610640029467381
-0.8633803217566622
0.8078707187356595
0.718179447567325
-0.3850763746096655
0.6632027403510816
0.7141113032290859
-0.4604578090515902
0.839082002100407
0.3556201358842731
-0.05064887097104412
-1.012942022714256
0.3890094239044085
-0.2891221180422224
-0.944685810735686
0.5207023779287425
0.4076846902155133
-0.4395944247042702
0.7537660613822786
-0.09576415541855422
0.7103064879573352
0.7414880426978923
0.714527233727106
0.3963643786512084
-0.3597397498013062
-0.8914973978462073
-0.8138518510082198
0.2700176176238823
-0.934664117975078
0.0115747104919257
-1.040932007100232
0.1302465128301467
1.104978894628599
-0.1525858891770965
0.3748140279388651
0.1466194828328721
0.4499324411656297
0.04708804018759053
-0.8643995229240784
-0.2158875900585555
-0.3510951311743473
0.7636947657926531
-0.790915979676444
-0.2494324251013575
-0.4601854534858494
0.8282779972130923
-0.2047946183988661
-0.1082608338846056
0.5688789763554749
-1.069118615560626
-0.7374555865187674
0.01644547255456234
-0.05001960161525008
-0.2422795936154089
0.9568615805443994
0.5713276426800453
0.03519438418081298
0.0324672082851092
0.5657441944228461
-0.1656686428618912
-0.218878031894541
0.09415291317143588
0.8255610484987228
0.9842504760818205
0.2978736661723076
0.1282168401911494
0.09521172465602866
0.1350156910351311
1.144717074914334
1.062916052492173
0.2816331538290973
0.4599087085338474
1.082693072429689
0.7943455333513595
0.3347413450306395
-0.5911229666798518
-0.791737632966189
-0.2360273381410032
0.9369745694563856
-0.7164664350552474
0.4501656594814921
0.4711459760113826
-0.4393456531566677
0.8093953793321766
0.5586326174703026
-0.4926038716685145
0.8217154013354867
0.8155545119311273
0.0369517067584299
-0.3391382388481762
0.2825065067029178
-0.4277431566617783
1.115345882166819
0.9604572650702347
-0.7747134023314494
-0.7649231389720934
0.201539451980113
0.8940749939876926
0.2962881757184348
-0.5489697336585659
0.5309038449511809
0.7586422970974926
0.9243801610383544
-0.3720360546498934
1.094537524508649
0.1946785935707638
-0.0713219377334748
0.4220317992013173
-0.134191042174207
-0.01648618139860031
-0.06042215600629472
-0.6206562286782393
-0.4888620512818528
0.6799529997215668
-0.4605965751873675
0.6557333070399481
0.8009809000897536
-0.6651662722141565
-0.5817396959537032
-0.2478731754147063
-0.9079778291920912
0.6248746968173695
-0.6452966661213915
-0.7178212426660836
-1.143368316603329
0.7184570523470319
-0.9008545053203503
0.5546716727061213
-0.2605339135408837
0.1870799524769992
0.5556333784010766
0.09731332682617765
-0.01537699310430243
-0.2775422961721858
-0.07170442311466062
-0.8556293389717055
0.528319157742414
0.8841695961283014
-1.084367211536412
0.3125877466409374
-0.7213397912647852
0.002344461054718517
0.2140274411981831
-0.1269002082062861
0.3542861411635564
1.092939853337439
-0.6841630962675428
0.9817575956782406
0.9603006189107873
-0.1979391727789825
-0.1023098303153113
-0.5759257698284787
0.3996978469479717
-0.1689261880652709
-1.071499833293164
0.9116967644545935
0.6877424777673184
-0.9218958067137089
-0.5191945891424159
0.9343206477828628
0.9607626074536868
0.4870498549154101
-0.4841025223489539
-0.2256665316124367
0.6582119549474073
0.1790697045947681
0.6443777763742566
-0.2259802189993412
-0.4744436910701768
0.3448538622675573
0.4003655865479804
-0.3569419546835085
0.1052632638020424
-0.1238016536748701
-0.2074524081592099
-0.7120427893911315
0.7994710529616064
0.5373644523685958
-0.07682043177188118
-0.3713784819773742
0.7356975015312146
0.9008741014412145
-0.7868048248796697
-0.6679372897502988
-0.9196103673902523
0.9692479174532322
0.05169243817913666
0.08895272984882996
-1.039760663232843
-0.8510125331905043
0.001433352483777407
-0.6968346625745554
0.9696140890602033
-0.4492564461809689
0.01857778270201705
0.6571082522804496
-0.8662796693642091
-0.6251838541142839
-0.1894405912327216
0.4507982402006087
-0.2760302227963349
0.09451776950116443
-0.7777311641061226
0.07783450268270316
0.9194419582447038
-0.02434322226644002
-0.3217635538803582
0.0468462651893431
0.9647639925898785
0.7566045676147418
0.2176626360660154
0.6749239806297394
0.565241805065975
0.5428017406208829
0.437234510935996
0.2433872617203755
0.2191454162241617
0.543749309421009
0.512143268704355
-0.8234292894713415
0.5124682670079764
0.2743446694016679
0.6647044753648347
-0.07279050154773507
-0.2782440717339921
0.4300776112755457
-0.8342153622482513
0.189438374860896
-1.096839267005291
0.4244725536045185
0.5719401079227798
-0.5153683329966612
-0.3648699730231732
-0.6965861431265601
-0.3965780977349511
-0.9942621354705439
0.09757835187270934
-0.6316442055543604
0.05903179786704384
-0.9075845033578926
0.8015624938612844
0.9832532835663478
0.828728704408615
0.6866061568822787
0.1400943832309707
0.302578968035853
-1.056874308163088
-0.396956722327044
-0.8619326195599604
-0.3432859126909961
-0.4472210556669924
-0.2391085171780058
0.9686552878250996
-0.1869082629015174
0.9976299454200802
1.058027011310547
-0.9270436248497472
-0.4685088743946405
0.5352606550404897
-0.6943996529936757
1.068906431817618
-0.07106141693280862
-0.5200043308170117
0.5735524778861624
-0.5384600195714874
-0.5173766444395503
0.5224567030625334
-0.5714265063974218
-0.8001295375109313
0.5492775391203516
0.5209782563346131
0.4143430306996934
0.5364601899450853
0.3401645371490264
0.6590139794281334
-0.4622061799841268
-0.1657889394425199
-1.132971735144068
0.8189901315586838
-0.01781655063514534
0.3447240721166803
-0.8557759578090592
-1.031904060690051
0.7263183155187117
0.4888365004594172
-0.260580841491607
0.9256404493507342
-0.1020351323738543
-0.319392750255889
0.3679464590340372
-0.7412703336151838
-0.6336884065386623
1.01872960969946
-0.3853065659936352
-0.5419849260871348
0.4080360791824436
0.9432270903129809
0.377077865063452
-0.9602739228376964
0.4729118401049797
0.6147546440819593
0.9900168741961652
0.5759913729284939
0.820227611479576
0.8354311600206543
-0.7632223748560338
-0.8665180910441838
0.1747979881711794
-0.9414740321010953
-0.7909696652863967
-1.012977729233071
-0.8493758981843134
0.09272855278623225
0.7554349350221063
0.4266602368468808
-0.9544533483493313
0.9442507936852489
0.09276233380220482
-0.3343716978893979
-0.5343066038106666
0.2266034988660078
-0.9784294808246211
0.6824265945224141
0.823018592745656
-0.155458505989021
-0.9880295460435935
0.7217404434316794
0.5398740452021094
-0.3916115580265908
-0.7141798667668192
0.8949896879772596
0.7533483314987208
0.1013178986974469
0.002059723467622929
-0.3277517621708331
0.961489896333214
-0.579335481084287
0.3734103698812938
-0.4005579376156919
-0.859871120276164
0.7892118907843472
-0.0008194144225985671
0.4698639922613249
-0.222632389197289
-0.6606164360396225
-0.4914138039291894
-0.1744951782817807
-0.745679713971157
0.08831853986388993
-0.8906671604936111
-0.3204764418555897
0.2611129023565978
0.9576559355757673
0.9692995418856902
0.4567290763118517
0.5719223542149318
0.1381790189370729
-0.5420047000372373
-0.6534322134586009
-0.07632450091857203
0.6294917794306188
0.5317232695503078
-0.2370964210922589
0.2900091652134025
-0.1426141779611191
0.628479135748408
-0.1381725962719401
0.1855336005407184
-1.093661739713498
0.8616396497563814
0.5714424920305737
0.9309230598466847
0.7410184470363076
-0.08662324115723578
-0.8619355009076262
-0.529818411915669
-0.2883821260900605
-0.1274718805178872
-0.2089907137007894
-0.1546770524190867
0.7053326137888788
0.01391628262028058
-0.7848981469905586
-1.017797319481277
-1.000721328377478
-0.5916949439630371
0.6620723246343387
1.009714944894605
0.0496718549395597
0.9508873149830266
0.6460305916551171
-0.9276882186401774
1.108996753880324
0.6077380047552541
0.0912676786216549
0.01826506541645647
-0.2220961589786863
-0.7277409236220104
-0.4617845927099093
0.06738016091034821
0.4277620923714431
-0.9520850452961109
0.3320656773600266
0.635486855114629
0.0499415874453743
0.5453202768913229
0.2404905410188411
0.1518041612618267
0.4099869438171044
0.2431755988795386
-0.3328861747409278
-0.07303283088134623
-0.1461977604081677
-0.3647887852532115
-0.5388743880986003
0.2791791897154045
-0.2931990153337883
-0.2542672218911925
-0.1099031677422033
0.201836692644966
0.2863502227284607
-0.5425013522000841
0.835856071188646
-0.2108430319875738
1.126470956597849
0.2677346124181934
-0.5088967211553331
0.9572908581540327
0.3242130740400004
0.858785306233142
0.403449216143544
-0.5182361655776433
-0.5006413060319923
0.9181027797304669
0.4877543692373903
-0.3334211655905031
-0.9573950137260264
-0.185108482554016
0.9414517780789432
0.9456049675697152
-0.155843975227714
-0.5406328703559282
-0.1640961583991348
0.02217240709705393
-0.6251461303018464
-0.4293961350243528
-0.2921577180302986
-0.6651268758311215
0.451867312743493
0.9475338308145208
0.5797552245198857
0.4021950887560509
-0.4596798680390284
-0.3969627784094553
0.9355227517651539
0.6820747530151844
-0.7189320516118944
-0.5494378335349748
-0.7784547538464978
0.8948581131227032
-0.7221329867861965
0.9531601997408912
-0.8213990573387814
0.9768342360422394
0.6618558205980525
-0.917273782437833
-0.9252496604452941
-0.03529657520263115
1.050601477836495
-0.1943015238121339
-0.8547475313780821
-0.9106538559045797
0.7147452558683778
-1.002791296600253
-0.9938413930814068
0.2962810114471331
-0.5119428447360664
1.000732817928413
-0.6971648687266433
1.070478659388627
0.5451096583110256
-0.2455510944003531
-0.6635369304611582
0.06945051075314802
-0.3669542776698585
-0.772865665958854
-0.8118487042582136
0.7541850990342647
-0.875847268026738
-0.297283134924018
0.7014154386754022
-0.9153470232493134
-0.7627781074591247
-0.9077413959533519
-0.6336403228918497
-0.3645567669197729
-0.8272915487834236
-0.6209004323168102
-0.8032910501533096
0.3407362692560529
0.9257149899753764
-0.5413928305075806
-0.2201296258222793
0.4571940433578868
-0.6283231510808577
0.1517347022910232
0.02790526350937388
0.5759170076283621
0.6364505962896578
0.4545942038548906
-0.2219314236331681
0.4302547814624448
0.02821863110739665
0.5402847241330431
-0.2956273281295931
-0.658966852792876
-0.02702627090231343
0.5996690723606146
0.8434001616314249
0.4936513326300762
0.301651873628332
0.3480882366024617
0.5176549632508123
-0.01954863623649753
-0.4444621755799263
-0.9203989653727738
0.8145209415793501
-0.02204312277449678
-0.723564536822151
0.6127475230659298
0.7332903478756574
0.347762217935273
0.2356289344392023
-0.1733604703067981
0.1061189514802852
-0.1286202120177891
0.180835447433027
0.1571749490370245
-0.5441187613971062
-0.7184985617754617
-0.108153348074294
0.7105458122447059
0.4128398109779882
-0.4405153445558536
-0.3550606237249742
0.4816455908255315
0.9752472691747605
-0.4132637610756998
-0.3142873044009571
0.008079453153730366
1.025886998510958
0.1002024732274696
0.08975430993183679
-0.7870009574587772
-0.3345533749181418
0.3357787602541477
-0.8856732717453663
0.00655992071664441
0.6528851370473201
0.9943103091562996
-0.491349311969859
0.8745905340358441
-1.070446222956319
0.7449226806448103
0.5441148289232038
0.6928366350276659
-0.705110346391898
-0.2366618968636649
0.1329789829947003
0.4133543860939544
-0.2413952261079692
0.4770754701742414
0.0545534846204497
0.2104846012532217
0.6788728012153435
-0.4766688452700877
-0.1986087072229811
0.06731458388062464
0.5647175828496578
0.07226047766560884
-0.9584773618547029
0.0895200669464538
0.3377504317588043
0.2153210519226189
0.1414926737067694
0.9980696400266778
0.1876883528189017
-0.8523318265740025
0.1924999643664029
0.1973747797278768
0.2074681075430206
0.4192563309438306
-0.4698951835980477
0.9198834425096279
0.804219953147118
0.5411010989396631
0.2576380655805959
-0.7271977527933777
0.3907319865598329
0.6511451015143604
0.3694586495584808
-0.3855477744908797
-0.8319253064469879
0.3075646403437169
-0.09941576508664528
-0.7723156403102661
0.3735741396640556
0.8616364700297232
0.8492979036543886
-0.5933907537464455
0.8476891631654536
-0.5469484995363546
-0.5678885101812552
0.4757982748588703
0.9577351536974159
-0.6508237771706017
0.3679992342361351
-0.5670278416559794
0.9070852395989342
0.7266909361582572
-0.4368695705112584
-0.5355714810329357
-0.2902502068919648
0.07792345507977146
0.8557499009370426
0.8439178022021528
0.8302744025460613
-0.8014126421032689
-0.3557141436578644
0.8976236838934757
0.9329456855855122
-0.07592706283255542
0.9125723848427193
-0.4357669450652134
0.4768432608444893
-0.03465372702155646
-0.7808352515198794
-0.6600602334026388
-0.5153013950844825
-0.8543778388925234
0.4138427948118668
0.3193925659543584
-0.1033532550095824
-0.8178867481576202
0.005337204550346171
-0.9187702668634677
0.9355916247432876
0.7277532270063098
0.7382780187926924
-0.6469610361428558
-0.7067535712689152
-1.016393422739488
0.3236496528254356
0.2170373245263385
-0.5791934599626366
0.3689409172802106
-0.3000378340729952
-0.6935848604988938
0.05338694907718633
0.540749013456306
-0.191786127021101
0.988887981596276
0.3331547279570545
-0.5733817014938584
0.4307711568625424
-0.2657370404758078
-0.06681956116771466
0.9404307423020039
0.4486287664277819
0.3549466357839761
0.9801597688744209
1.00336283482018
-0.7626374475039229
-0.9550522925558804
0.3779950937841614
0.7731558165468605
-0.06354035755801861
-0.152209570756849
-0.02158854848657325
-0.5358834506159132
0.524982375902862
-0.8613528573056409
0.3071216466947673
-0.7214084651591565
0.7443475922655253
0.4699759893122181
0.7894406916080163
-0.9755336519086708
-0.5165889411466631
0.993698452031157
0.9017493420051902
0.9052803557079325
0.03301229048850531
0.4129664428902143
0.7387176989169735
-0.8679634486973739
-0.6493656950412943
-0.9185919357537485
0.2409197932468911
-0.2455026611563586
-0.4239914813740442
0.2041780661812745
0.09986019322470208
-0.823177136968771
-0.04716334967134464
-0.2086392008552944
-0.27056744848031
-0.08443215007371789
-0.5101198357112737
0.3668646654497809
0.9871505928398437
-0.8262224328336392
0.362858341230922
-0.9173289764721015
0.1504829535394775
0.587158445346572
0.1119246043515074
0.1678685014701631
0.6472362837119018
0.08411607877796193
0.9334775039253327
0.5329283313707807
-1.109759010749921
-0.2516276767478723
-0.354743791368381
0.2012042091004385
0.9865298853324053
0.9437606780466314
0.3174598717700401
0.895794363933006
-0.9508884622598438
-0.07131201684921182
0.004718524934746052
-1.030185307296403
0.3539355151387648
0.3993119774705642
-1.031250070220762
-1.058623917743249
-0.9469310557573691
-0.7741314008158267
0.6860387955645388
-0.9510310606249452
-0.2735394390033485
0.9268756512779556
-0.3629680560240049
-0.1418020501782322
1.118684427877804
-0.4755414852565198
0.6860862878847853
-0.8622474760085063
0.09070611001464056
1.060648059869699
-0.9750538134998166
0.7608420383133266
0.176915662807289
0.01014064503369004
0.1602221935649661
-1.095592198839137
-0.9068870422543289
-0.4952515252437207
-0.7662597063490286
0.1387768635427922
0.3960414961624382
-0.9290166569715089
-0.2384448774682285
0.5754327484435457
0.5697264882299348
0.1025557451335613
0.7496709026626058
-0.3620160563880817
0.7822992580750304
0.2841586221096393
0.3379556626535165
0.6781332143330591
-0.4284191221012101
-0.647224220298926
0.9179169273073448
-0.144945589637214
-0.1410692826301378
0.09597747890264501
-0.3530261582186
0.7115297724474015
-0.5470938852205137
-0.5410534365369878
0.6927016444924143
-0.4297785372628866
-0.2342082642113035
-0.3119585749626687
-0.2503606484701975
-1.005227193915459
-0.4350980095101761
0.5142043953407209
-0.5730419768924154
-0.3438573744129638
0.1140221611515283
-0.4777723267257246
-0.3323105112729106
0.4188250957327374
0.2027737154941087
0.622702545898243
-0.4625963187745392
-0.8246518698460383
-1.008967139426207
0.1604683351397655
-0.9577399249260559
-0.7179257529794383
-0.07309375262325618
1.037880844198431
0.5318002200165128
-0.05919444727786682
0.2847331166164268
0.6667195886335915
-0.8678036971305516
0.6893226999182156
0.6104633966906856
-0.7184240751077698
0.09523371142905478
0.9595287814457264
-0.8971138530355411
0.223236263492956
-0.7118143700428481
0.6898375744295948
-0.07218872227654945
-0.1961480087718028
-1.037429181736227
-0.009520588107927089