# vtk DataFile Version 2.0
created with he
ASCII
DATASET POLYDATA
POINTS 2562 double
0.792159785418346 0.755812423049796 0.19156931004468
-0.918580966280252 0.651123529240543 -0.08580020400881221
-1.00315660002006 0.353774411432981 -0.255569603823184
-0.471681113509005 -0.973190369644804 -0.221610918368853
-0.218662606427641 -0.905771706262848 0.421031814353952
0.447085861076039 0.178912451223855 -0.6692456533978151
-0.475482753783744 -0.911555552430879 -0.311420898557126
-0.355064401418556 -0.660839485754517 -0.554230802431073
-0.751430663354155 -0.81284913015552 -0.159328119490555
0.264556796602141 -0.939015215823776 -0.37650398686301
-0.08896978786692809 0.964617226829951 -0.383962964617536
-0.812834908299835 -0.244341688591479 0.490038469091924
0.0763559638998153 0.133103663878509 -0.732458850453706
0.660786692283256 0.849907979515337 -0.231558477470113
-0.880270050517036 -0.7142742594217401 7.890945851027271e-06
-0.700095877420543 -0.792840361727377 -0.265965936827785
0.244281540880869 -0.751397971460893 -0.530113378368895
0.23011149339458 0.0448091861983814 -0.723282080162217
-0.876425847715679 -0.458227452214961 0.361313052264741
-1.13011156518151 -2.13541259806739e-05 0.058003013836962
1.00501347306822 0.522490733577386 -0.0292693517045368
-0.687378924346015 0.6145233523618781 -0.430079414205753
0.494529018369119 -1.01192800917174 -0.0837829291572314
0.620535840612916 -0.943630430124977 -0.0637624324553514
0.40780358510971 -0.700053471671832 -0.517074552376157
-0.134468290163689 -1.0604806504085 0.246056063485194
0.322096911001033 0.547586910059854 -0.612264950761494
-0.300623198010914 0.619461945401013 -0.587266681688258
-0.322162774021453 -0.547581337498117 0.612252333240355
-0.0447785960996656 -1.00505499991827 0.340687656341345
1.00406573715188 -0.0603489455654377 0.340906459477962
0.588692428680779 0.0889219090556789 -0.629097087933724
0.339754282574857 -0.471638174429941 -0.634679970140514
-0.778445698514708 0.820077440847151 -0.0528122415063931
0.792863292525494 0.407893885185365 0.456518659488794
0.660849960516435 -0.849852906389243 -0.23156765431157
-1.02804354579914 0.364493372351046 0.201354345326131
0.59232648159303 0.818899867168177 0.334828344089762
-0.201301735800977 0.463448611614433 0.661765292363426
0.47747847230824 -0.475431055522511 -0.594495366270967
0.547563778126533 -0.938822685921899 -0.210154099179585
-0.988034899834657 0.430263956025919 -0.229383462326757
-1.02806009881167 0.364491336616706 -0.20131996738334
-0.768341708918386 0.661888335447533 0.330354557596311
-0.5513705549981091 0.795995672688745 0.384396577762661
-0.400249154739884 0.51353715453541 0.60516599173932
-0.778440480540912 0.820079571813748 0.0528308747629319
0.918580279038721 -0.6511342041946661 0.0857688750324401
-0.430346032329831 -0.35176277048511 -0.6443031612888011
0.867343461266076 -0.709291541988928 -0.112356278342687
-0.300546569804176 0.619477817054459 0.5872762415234321
1.06171626906323 -0.295953431916157 0.172825595919521
-1.06047036654276 -0.377339251290098 -0.0876890317567864
-0.364577437663808 -0.308728440818083 -0.670409272454966
-0.0445609266458954 -1.13010699268249 0.0502422059253248
-0.222757542879201 1.04730351201431 -0.242780901237989
-0.535038416327913 -0.981644255591856 0.1223016802806
-0.339895042264824 0.471662525610373 -0.63464022123365
-0.115917137636708 0.722607455854831 0.564563001719748
0.389258855506366 -0.861939049917343 -0.407571556161568
-0.8867918201380049 -0.637004353797135 0.198755191936636
-1.10225754544677 0.228435382015023 0.0872706765990939
-0.767640917570058 0.125976257248779 0.537731981989117
-1.12309367150389 0.154024945708543 1.82544123533078e-05
-0.0889142993135203 0.964636394979787 0.383947950930842
0.0889264931690668 -1.13011289572074 -2.43525223796068e-05
-0.293787424865137 -0.792196837233026 0.492858051613199
0.692818538460779 -0.342341167206144 -0.54086562712282
0.708167127328824 -0.863505359445316 -0.126991919068073
0.265044340283974 1.06170918909917 0.193000993032119
0.687336981480155 0.858601394377599 -0.179110933718607
-0.27698531198564 0.429238804790371 0.659944168547189
0.86630154304997 0.0384887546811005 -0.476148590422463
-0.867329016508679 -0.709325483212814 0.112312565907587
-0.0384087240593285 -0.730078237765613 0.56498049096999
0.5540743154108561 -0.876440199333108 0.298786472094644
-0.653824213840442 -0.0439354561816181 0.6032315286746019
1.10906937744236 0.230250252464063 -0.0292590699191863
-0.169422051644593 0.601646157134907 -0.616734329213982
-0.224985026447852 -0.221146850410105 -0.71005944178435
-0.865714249114639 -0.115926032172334 0.471237542609179
0.513572877032918 -0.9279777014167 0.260986712760623
-0.0384524626706757 0.730083588134588 0.564976285365228
-0.522813730555594 -1.00403252945019 -0.0393856649283714
-0.230173978794685 -0.044784236962102 0.723274281729966
0.364447432222607 -0.308710991198045 -0.6704427502060269
-0.131622208045386 -0.9185353748914 -0.424654600562856
0.187450814839765 0.535060319277908 -0.640166952956395
-9.18312895687127e-05 0.680913670808062 -0.5910433657673499
-0.0511059651900431 0.581204096028771 -0.6338302642263099
-1.08983858564577 0.07311366168578599 0.197769044081457
-0.37225857230365 -0.222692616327796 0.682997730256887
-0.274677244667251 0.68739097797627 -0.5598899874747369
-0.944543954247252 -0.244728790608355 -0.376325708870625
0.900594056501264 -0.300515918863816 0.4039461069708
0.659522960193856 0.687369433882973 0.400739255265152
-1.10936802920934 0.151574120786198 0.115541758798783
-0.219774037410784 1.10955672073293 0.0490027156807272
0.177168939662747 -1.10937095898477 0.0988371797468884
-0.6619646743754189 0.506546537739975 -0.501030927384982
3.76687566908613e-05 -0.419141941305831 0.686874794118369
-0.0662990684670243 0.456079807459357 -0.675410159274397
-0.0449545132972622 -1.06714694424292 0.247673199916256
0.0702626778278055 0.382458451958126 0.6944083675313381
0.73002180167194 0.866405066223809 0.0250330255510588
1.10227298783364 -0.228421448620224 0.0872032125614718
0.128352881874714 -0.494493544445082 -0.659934014664925
0.201321398683185 0.463464712097269 0.661757953187039
0.964637794172661 -0.588746011185976 -0.0580184477883501
0.792770604638813 0.407887955835533 -0.456589362954919
-0.08891098527058409 -1.13011411615608 -1.86644124978659e-05
0.211735706182745 -0.386857446461479 0.68102656529203
0.812778394365623 0.244367474130292 -0.490072864229656
-0.393661924338049 -0.9417705893568959 0.321576448584143
0.128457766182107 -0.494524478537459 0.659915477559217
-0.0764130747096463 -0.13308336594389 0.732457886129112
0.941742363042101 -0.493085100521204 -0.256788026433207
0.0418924007979979 0.831164269103688 -0.501962734348896
0.552859279621075 -0.433849655478192 0.580063581899352
0.0450032106789663 -1.0671462091801 0.247670785782387
-0.928009896454118 0.400223514405789 -0.334870525204277
0.964602673176356 0.588826342257156 0.0579199992564926
-0.391916179095583 -1.00314316397266 0.230719588567657
0.928020610544609 -0.400224460482868 0.334857416877734
1.12317458753351 0.0764924289639565 0.0867383101360626
0.151519774499856 -0.177124854185245 -0.723466597490853
0.133725726718904 1.1022585981531 -0.149004389505045
-0.87647865332714 0.458185613161796 -0.361281140605876
-0.522496949989005 -0.0448035324763498 -0.655403585564136
0.230114426240055 -0.0447583671831678 -0.723283021514072
-0.0439473024052901 0.925013643504096 0.426378653192788
-0.0752408282279548 0.219730556401218 -0.723580850691032
-0.8657580642414699 -0.115915781495366 -0.47120438094721
-0.151568768693458 -0.177151621660596 0.723459445664466
-0.452651535732274 4.38576864013378e-06 -0.677770704418846
-0.8498590906481081 -0.355038356376536 0.430976357142329
0.767694884349263 -0.125961459322118 0.537700690523262
-0.219385896121966 -0.305840540181986 0.697324378900951
-0.73618045905656 -0.729965585269494 -0.299024323667092
-1.0050585715803 0.522408492504566 0.0292350584720113
-1.05326635188866 -2.05372320314284e-05 0.273346880416685
0.659574111081016 -0.687318141402386 0.400740867358224
0.628990509357134 0.836812749072696 0.283643363398791
-0.660908380241264 0.849844511871594 -0.231509843890232
0.044576039117756 -1.13010190562135 -0.0502851484032847
-0.265097302219275 -1.06168061338685 -0.193036906877999
0.778422785215133 -0.820090507202349 -0.0528695532614664
0.778433458411011 -0.820094124557876 0.0527787810474074
-0.628995760001155 -0.836782701194041 0.283676109223947
-0.4717072553363 -0.831560621848761 -0.39724661686434
-0.42924118359304 -1.01197080008979 -0.180642497597844
1.01192964811628 0.277040469916527 -0.279969877362455
1.06485972806914 -0.0702055960829322 0.249357475645951
0.861950988339078 -0.624896992505642 -0.25391999035475
1.00505610464316 -0.522408269489464 -0.0292727966073653
0.30467550602741 0.886814772441289 -0.415422872641012
-0.339788582969263 -0.471680927389342 0.634658648800733
-0.20998773606937 -0.811501311521415 0.497691368632371
0.364543404737302 0.308771583232386 0.670408693183616
-0.0889130126353383 -0.964609851652086 -0.383976437119199
1.04731658946385 0.372336153051352 0.145173906866548
-0.945716572127106 -0.169353093074551 0.39236725323932
0.880235765802012 0.714316506652902 -4.41446830206801e-05
0.303178191373355 1.08985859069335 -0.0477187229962439
-0.221230306370345 1.08882004731273 -0.14668105307448
-0.700232444798219 -0.710826203745602 -0.350860006684196
0.588818109502704 -0.08886332742728589 0.629050584692043
1.04428927155838 -0.211649352943095 -0.252340907912103
-0.755663863552089 -0.565717479417191 -0.409340136834094
0.661920711956917 0.506610448191546 0.501028147483874
0.5923227474637049 -0.818832943334086 -0.334900751349449
0.076478143009199 -0.133079148252586 0.732455323918518
0.434999486000204 0.629048297434212 0.545667699521498
0.293776070605312 -0.792155842251592 -0.492888951274752
0.126029380343816 -0.824571266369991 0.500600162236482
-0.99144494152539 -1.42160953043375e-05 -0.358436454224236
0.5772076260654569 0.264614848116162 -0.612406696024591
[...]
POINT_DATA 2562
SCALARS x double 1
LOOKUP_TABLE default
0.792159785418346
-0.918580966280252
-1.00315660002006
-0.471681113509005
-0.218662606427641
0.447085861076039
-0.475482753783744
-0.355064401418556
-0.751430663354155
0.264556796602141
-0.08896978786692809
-0.812834908299835
0.0763559638998153
0.660786692283256
-0.880270050517036
-0.700095877420543
0.244281540880869
0.23011149339458
-0.876425847715679
-1.13011156518151
1.00501347306822
-0.687378924346015
0.494529018369119
0.620535840612916
0.40780358510971
-0.134468290163689
0.322096911001033
-0.300623198010914
-0.322162774021453
-0.0447785960996656
1.00406573715188
0.588692428680779
0.339754282574857
-0.778445698514708
0.792863292525494
0.660849960516435
-1.02804354579914
0.59232648159303
-0.201301735800977
0.47747847230824
0.547563778126533
-0.988034899834657
-1.02806009881167
-0.768341708918386
-0.5513705549981091
-0.400249154739884
-0.778440480540912
0.918580279038721
-0.430346032329831
0.867343461266076
-0.300546569804176
1.06171626906323
-1.06047036654276
-0.364577437663808
-0.0445609266458954
-0.222757542879201
-0.535038416327913
-0.339895042264824
-0.115917137636708
0.389258855506366
-0.8867918201380049
-1.10225754544677
-0.767640917570058
-1.12309367150389
-0.0889142993135203
0.0889264931690668
-0.293787424865137
0.692818538460779
0.708167127328824
0.265044340283974
0.687336981480155
-0.27698531198564
0.86630154304997
-0.867329016508679
-0.0384087240593285
0.5540743154108561
-0.653824213840442
1.10906937744236
-0.169422051644593
-0.224985026447852
-0.865714249114639
0.513572877032918
-0.0384524626706757
-0.522813730555594
-0.230173978794685
0.364447432222607
-0.131622208045386
0.187450814839765
-9.18312895687127e-05
-0.0511059651900431
-1.08983858564577
-0.37225857230365
-0.274677244667251
-0.944543954247252
0.900594056501264
0.659522960193856
-1.10936802920934
-0.219774037410784
0.177168939662747
-0.6619646743754189
3.76687566908613e-05
-0.0662990684670243
-0.0449545132972622
0.0702626778278055
0.73002180167194
1.10227298783364
0.128352881874714
0.201321398683185
0.964637794172661
0.792770604638813
-0.08891098527058409
0.211735706182745
0.812778394365623
-0.393661924338049
0.128457766182107
-0.0764130747096463
0.941742363042101
0.0418924007979979
0.552859279621075
0.0450032106789663
-0.928009896454118
0.964602673176356
-0.391916179095583
0.928020610544609
1.12317458753351
0.151519774499856
0.133725726718904
-0.87647865332714
-0.522496949989005
0.230114426240055
-0.0439473024052901
-0.0752408282279548
-0.8657580642414699
-0.151568768693458
-0.452651535732274
-0.8498590906481081
0.767694884349263
-0.219385896121966
-0.73618045905656
-1.0050585715803
-1.05326635188866
0.659574111081016
0.628990509357134
-0.660908380241264
0.044576039117756
-0.265097302219275
0.778422785215133
0.778433458411011
-0.628995760001155
-0.4717072553363
-0.42924118359304
1.01192964811628
1.06485972806914
0.861950988339078
1.00505610464316
0.30467550602741
-0.339788582969263
-0.20998773606937
0.364543404737302
-0.0889130126353383
1.04731658946385
-0.945716572127106
0.880235765802012
0.303178191373355
-0.221230306370345
-0.700232444798219
0.588818109502704
1.04428927155838
-0.755663863552089
0.661920711956917
0.5923227474637049
0.076478143009199
0.434999486000204
0.293776070605312
0.126029380343816
-0.99144494152539
0.5772076260654569
-1.06169269068652
0.433838909924928
-0.831196772521573
-0.861950108167411
-0.400324113452207
-0.687431050995669
0.6456616694816369
-0.0604474299615008
-0.0445683385333378
0.554011013127536
0.0810393868079559
0.768373087160657
-8.87530916356302e-05
-0.831194163899258
0.300447583138619
-0.355099641994832
-1.01197610921981
-0.458254808516872
-0.589480456535845
-0.778409182536448
-0.513517845757871
1.02802811321483
-0.829301465375024
-1.01476836978853
0.918562140808002
0.811490682610569
-0.407821587474785
0.74479831006508
0.818826311973279
-0.494513593037267
0.906265166706717
0.372327158858915
-0.0315294298080299
-1.13010722680545
0.393655604175419
-0.308811742259712
-0.889519897235252
0.513506633869845
0.477553138786021
-0.522423314715222
0.820047464564751
-0.115875009959214
0.820151442878464
0.82014514419014
0.820041166329275
0.458453871537649
-0.386920149614502
-1.00402471138269
-0.943636079441038
0.305787266919549
-0.944554005169967
0.0439019369402111
-1.10907912389134
0.151624557900996
1.08883961050386
-0.134130097067893
0.391895670305959
0.17886680108997
0.45853995580057
0.07507913849254989
-0.940397647818447
-0.211776005146383
-0.364593840218323
0.889508362405891
-0.863561154805071
-0.293830679160471
-0.535052471486798
0.796053077552105
-0.244366606157503
-0.115955592360118
0.632168400048651
-1.06484684451673
-0.8657191994325411
0.0419693000500203
-0.0384922686718752
-0.264556916143541
1.10938663907105
0.601608490901425
0.0445837482466539
0.0315687059175827
0.627632888938781
-0.194707174401329
-0.244774105837507
0.0897060279804708
0.9417574311753329
1.13011088379992
0.339864053071036
0.187485379838002
0.134067771442282
0.131628970497763
1.07027533302014
1.10225388321326
0.264620034878648
0.535074882624793
1.01479099166246
0.84980511908707
0.309069001196565
-0.632261437634774
-0.9390255408724399
-0.228434482690249
1.08880749712153
-0.8128928937123741
0.494472527849012
0.547496097667766
-0.463428499774185
0.939023455884058
0.632164446121791
-0.475529080557259
0.911543336953386
0.900485281765502
0.044506387047398
-0.351756910430238
0.264494627272759
-0.519693507228794
1.08985984229675
1.08981579763168
-0.918546191692628
-0.905748103637615
0.228380451843628
1.00501981660834
0.305858980552849
-0.637035039346776
0.538028989062875
0.755689040578814
0.905708055762301
-0.433884285765841
1.10957821687568
0.222395105908854
-0.0446284843502347
0.47550388771193
-0.128409924450679
-0.0440101949403253
-0.0603826456125692
-0.729952287777439
-0.5771083267484201
0.769648726396667
-0.522859212125369
0.627688620964292
0.849832943461391
-0.6195244911964281
-0.692856084518106
-0.293851954934055
-1.06929808476817
0.709251030163646
-0.755747384046485
-0.824561799611248
-1.06928223300695
0.831554172693123
-0.943632064602221
0.651085136236689
-0.322241783782894
0.221161858278736
0.645563730393157
0.08960685561006559
1.2222939728448e-05
-0.35385656161226
-0.08975590719024799
-0.998547427130753
0.537993054612693
1.0118929728893
-1.08985403335173
0.372311916189602
-0.792189500378398
-7.9443101727187e-05
0.228371694394279
-0.128381222303463
0.430315546104207
1.01474165220518
-0.792828635908133
1.02804221192474
0.991455953668778
-0.178900465765265
-0.134072262274048
-0.551414313325172
0.456014082482033
-0.194669865731777
-1.06482423878507
0.938857496815734
0.700189775248785
-0.985634587060938
-0.565700902963723
1.0671155572221
0.998490750293953
0.47544721963578
-0.471749582232136
-0.244723551773726
0.755606942379343
0.19456775276255
0.730016816573699
-0.27460322552005
-0.552852389939984
0.351762057795837
0.458261116343759
-0.435001153868125
0.131561388273189
-0.13378279758676
-0.221149304017226
-0.820147904951839
0.880292197647802
0.624870122660276
-0.0702120063024184
-0.433882159079089
0.831181245207702
0.940357177751822
-0.766941583757706
-0.663849435493152
-1.02619702412177
0.889449107161386
0.09765515645037511
0.143691660521654
-1.10909003509496
-0.836772872131099
-6.83580937316619e-05
-0.744847553939062
0.911505298038406
-0.493188601436196
3.50389868846034e-05
0.767576953648342
-0.831585292150644
-0.687305316308655
-0.219403068289797
0.458505577343916
-0.304787305606802
0.134477797124726
-0.751414638954406
0.0731740183271468
0.8619018532057779
-0.0314914617976996
-0.344936187646785
0.0510554073288497
0.971968932984185
0.8367333476886401
0.244320433953104
0.70812705169803
0.577063525306172
0.653878698373156
0.463441569947989
0.27450100423254
0.221186074332601
0.620548048336817
0.581223003839524
-0.9445209787515
0.506558772490739
0.303259358159998
0.755687182680287
-0.0770443344113375
-0.339813886017577
0.463393972974507
-0.940398945189808
0.178800688259054
-1.06167886378348
0.493169410752006
0.620478589822
-0.513919506072868
-0.393711388664585
-0.710839131421535
-0.393751359474146
-1.10908136799132
0.07506545742792491
-0.744898069242224
0.0602950112862201
-1.04732243158979
0.911570689455054
1.12318101321881
0.836699374121966
0.730021063706084
0.134013785477415
0.309133890287095
-1.01199942085185
-0.386902928804884
-0.940435238375122
-0.305880194874342
-0.458520055364566
-0.219718406231453
0.988045930715388
-0.210101384841245
0.941797022528034
1.10936075875276
-0.92798014073843
-0.538061669192068
0.589495244182346
-0.629066447374472
1.01195229037726
-0.07322331375810499
-0.609126911160492
0.627759480076575
-0.65388878097298
-0.581245637251977
0.58939686015927
-0.547625656408789
-0.829322766139304
0.653765057272954
0.601677732291931
0.463370189587647
0.619506671708398
0.400190589489197
0.769757939549729
-0.522499183356971
-0.169336210425135
-1.08882714721007
0.8635533693153
-0.0420717125822735
0.382375745482596
-0.998519307226134
-1.03569043712937
0.824527972776533
0.588698912445578
-0.264606937292053
1.0604927696036
-0.0977109161255672
-0.303294914624863
0.419152587721863
-0.687449820185044
-0.744830510132705
0.966534166930099
-0.407921935311972
-0.629035616464347
0.456086777291228
1.02799819410323
0.430200238429309
-0.911571921980335
0.52282669715458
0.661958436192037
0.987961426117736
0.601656713315019
0.945672382001658
0.943588406713296
-0.905788023295377
-0.938858327219135
0.177081474084169
-0.8895224216688
-0.939064521488289
-1.10300456751696
-0.836792960840826
0.07710471309829189
0.867310966282818
0.51386864501092
-1.06714911140964
0.991378456714419
0.0976162285034658
-0.34245469976333
-0.577355372646437
0.218600943005162
-1.00402230554507
0.687401370511395
0.79593446692603
-0.169301801775277
-1.05328836689328
0.736208481708526
0.6456778816497309
-0.389360308019771
-0.7669660480800961
1.01197362967737
0.865769899757601
0.125949894126457
2.60143174847055e-05
-0.354994086153203
1.02616989504013
-0.6638595351915531
0.379851292095104
-0.452569936686027
-1.00503777136896
0.907325222258327
0.0314751747662074
0.471662681982085
-0.230274230103212
-0.6276951593557319
-0.505242238896398
-0.1771388439275
-0.86639607206792
0.08090750209200361
-0.998540066376057
-0.344866934173013
0.300589103294676
1.10223437765436
1.10909520202449
0.522833987850027
0.577102080108801
0.201243095069537
-0.637049504238499
-0.7676352797419
-0.07320536676807721
0.708192186431053
0.61940286864178
-0.295975509295374
0.308733121336087
-0.172182036282665
0.72998626674409
-0.143828277732349
0.221114966802128
-1.10224891124698
0.924963180223153
0.6322338946070351
1.0888583560791
0.76688822958947
-0.0976745040856913
-1.01478550933077
-0.577273828400004
-0.296066057277417
-0.145662132083606
-0.230176483406403
-0.133141396414537
0.818865489816297
0.050957922851544
-0.792170748656391
-1.12308791629615
-1.00312106405025
-0.632214475906844
0.722554081939622
0.941702773125524
0.0751779038822387
1.06479877492969
0.730087544297998
-0.945757923205553
1.06485390849915
0.680931172037236
0.08892073764261969
-8.04579786170506e-05
-0.21971174859076
-0.836811800430903
-0.547579350350625
0.0702864540977443
0.494544363884491
-0.966589230271005
0.308664114424614
0.722539089507762
0.0448375140667207
0.6091991162964699
0.222339747673523
0.14366969459292
0.471725990828229
0.296013772935781
-0.379878456922279
-0.0447892282506171
-0.154024401332106
-0.447233302084102
-0.651203051350979
0.265011911620207
-0.304841389448541
-0.222724613013329
-0.0896918785493227
0.222404137917798
0.353820806739442
-0.645675401134595
0.867287611727211
-0.201366246931338
1.06930146216817
0.322133817419934
-0.592364664808504
0.911608730144336
0.354972963694376
0.985612163956802
0.458157768601642
-0.60168766940482
-0.5197001990061429
1.03931677010086
0.577226862558585
-0.389309533808762
-1.08985125042571
-0.210055666026479
1.06712204584991
0.8868396525971221
-0.133846645953579
-0.6538908503299981
-0.172246331961737
-8.84638958900992e-05
-0.661940893626115
-0.519624701283901
-0.342396998450633
-0.619459992779308
0.522477100903866
1.02623207156918
0.551324827033333
0.452504671786311
-0.513547481220164
-0.391944885108944
0.905789429191737
0.751364046008387
-0.831163344531533
-0.645611854747985
-0.86733944751711
1.04434469941931
-0.811511233302594
0.9985520305691929
-0.9005713857444571
1.12315506542606
0.687243135449228
-0.9390407454376321
-0.927993320340561
-1.73644369982222e-05
1.03566518607822
-0.218770697351321
-0.905775141391604
-1.00313516447707
0.700070949488342
-0.981662771739512
-1.13011593980907
0.304746387272371
-0.588831463318564
1.0532399438293
-0.736183226862532
1.06480459428776
0.624841433738529
-0.264658776690538
-0.687350399005336
0.128426423881135
-0.447161689887061
-0.7514673114710509
-0.943667600334708
0.766994798698882
-1.01198843282499
-0.372344438489592
0.751426088429199
-0.876459185960787
-0.768344950123954
-1.0616902997717
-0.72259518381809
-0.377305813921389
-0.918573287682739
-0.659539748185821
-0.829331582834439
0.400262237142947
0.964650223287396
-0.581198376972757
-0.21166134604793
0.519551908283072
-0.700104816168246
0.172177210799028
0.0661448580198373
0.551339261138282
0.729925599085397
0.522754832474782
-0.244295461293833
0.4944571830521
0.07017876596824051
0.620466382720727
-0.309226685378398
-0.751451287840104
-2.92996562925744e-06
0.709238036460739
0.818786399788621
0.577033409960914
0.304734957531104
0.400297686347276
0.6015874729160819
-0.0438919916181387
-0.43392813425623
-1.03569303121561
0.865760776486191
-0.0316203922727081
-0.792204183233911
0.687436473519297
0.736152994416425
0.400155143370338
0.265082214012771
-0.194747298363801
0.133091374273385
-0.151670314137765
0.224840320268071
0.194659726877438
-0.645622195768505
-0.824587378819713
-0.08897750114480869
0.736093410573196
0.429229679923209
-0.463496035350789
-0.382494623185943
0.57732319260048
0.945685990837471
-0.456128228345596
-0.309174220962868
3.84077682926809e-05
0.981660742593646
0.131570693620029
0.0977517095631491
-0.925025038876844
-0.407885371990185
0.342366063303102
-1.04432245769155
0.0447852525216235
0.70012331108266
0.938986753223665
-0.505153029397275
1.01472518501717
-1.01479348345255
0.863568682112187
0.6090610210335951
0.751457998521506
-0.730001250393293
-0.222446089399194
0.145617308001141
0.477444889784906
-0.300589462794932
0.471667352656955
0.0809560651676615
0.228490711122019
0.7447695953875511
-0.47173064937738
-0.222665881805335
0.06611654471755581
0.6144633617991651
0.0888557980446663
-1.10225565525854
0.0730447954694232
0.382456909057038
0.224825860833894
0.178848012426127
1.10908865988495
0.222646185737306
-0.900534755959092
0.219662632349704
0.218670381121324
0.219654545719534
0.471702951838906
-0.551375115145748
0.987996385692592
0.918528314670794
0.6512011197216629
0.300489057076748
-0.8311607357890159
0.429261996472876
0.763225685865915
0.386788784566237
-0.419189530154983
-0.940433941107028
0.305762840487101
-0.126075802414047
-0.9073095302577781
0.377370493286999
0.900570183817602
0.867366816735116
-0.577154333712898
0.938883345464201
-0.65120925824398
-0.661887528981197
0.52248030779734
0.945756017091456
-0.767694413336991
0.372192314366666
-0.614576935972453
1.02619538437864
0.811459452309864
-0.494564620946984
-0.513519742393152
-0.304739087675003
0.07015499195673081
0.829352278534976
0.96657742112933
0.858519318393972
-0.911551981271806
-0.435034990373196
1.04427182474549
1.00308508254897
-0.0751355964674489
1.00398681600206
-0.513566170589545
0.55126738164666
-0.0448555235368084
-0.8673592880907131
-0.627771300316193
-0.589507170380318
-0.818878796736336
0.493056938365989
0.342287836301145
-0.134178053264969
-0.964649450449188
0.0447352976513006
-0.987998146470855
1.06044218085428
0.700063639499196
0.82929826961107
-0.6595824939749499
-0.729973166632343
-1.02802920710025
0.355024387063627
0.244627581653143
-0.663891993663399
0.376843681418417
-0.372270368136148
-0.820144368957456
0.0439589369250114
0.6455475195760469
-0.187601157094428
1.08816720153877
0.364564488020676
-0.632216707590491
0.475382872236676
-0.322192349593291
-0.0771540550387185
1.08818022129091
0.513852766448274
0.379848206319093
1.04731536089599
1.10297605073024
-0.736150083422375
-1.06713214466647
0.43504336067599
0.866403550972365
-0.066200441099544
-0.178958945513578
1.94413809160516e-05
-0.589449388915457
0.609164507353026
-0.97192917252308
0.355069384053143
-0.831558842748921
0.861954556799287
0.552827953999851
0.907222459486192
-1.12316715636467
-0.589422673364256
1.13009784262976
0.907234042618015
0.876374997593091
0.0730636644459319
0.471595170350367
0.766937704027692
-0.938840127288862
-0.763224769330297
-0.985626251174984
0.274595419305211
-0.265155901321208
-0.463480326341895
0.218660044473605
0.14557499764939
-0.796016324338691
-0.0315824275177543
-0.211683129799443
-0.277072452956255
-0.0977994913746332
-0.588757106339287
0.376876322028538
1.08986593925878
-0.941745023968284
0.351810817031984
-0.8764453160830979
0.169378860498424
0.614511824157337
0.115950931253508
0.219437963614054
0.7448695443326721
0.07710193570477571
1.07028725926325
0.589356634531826
-1.10936232225019
-0.222698813737009
-0.364492806083224
0.210060269065514
1.10958451300053
0.938807389843578
0.342422312560143
0.918510177084531
-1.08816872882139
-0.0896631592331559
-9.10938316202872e-05
-1.08817330379567
0.430224739118358
0.458118859324776
-1.08815711920307
-1.01196512082833
-0.98801543055515
-0.907276561093492
0.7107525129723939
-1.08816169425549
-0.339869741458558
1.04734729589444
-0.351809664393774
-0.1330763207341
1.04432725200261
-0.471654714505551
0.755709635145255
-0.927963563950314
0.143781332865048
1.06167808857474
-1.12317088821891
0.81143147838976
0.194705583623042
0.0510195064246304
0.19461360585842
-1.06170412641319
-1.02621463113077
-0.549719801761287
-0.866351824298099
0.131503114886089
0.433900933909534
-1.06714677605115
-0.222455897836197
0.661861063715742
0.614597522425519
0.145522596247146
0.863457445558625
-0.344878890790939
0.905738077204296
0.295896035596232
0.351743610830932
0.700258853586892
-0.506595118132887
-0.769704531862701
1.06925731303299
-0.172295878822869
-0.131615291410416
0.13379570684119
-0.379880832153978
0.7361488954336169
-0.6205637086808899
-0.6369724908876711
0.767586612546068
-0.506583248137089
-0.296051596434308
-0.376917710589327
-0.277048868073805
-0.981625452107168
-0.513550111584801
0.592262954765183
-0.632259206157784
-0.308755933463135
0.115816063138463
-0.552873741466405
-0.342352554446334
0.505201778344251
0.209925668360737
0.710842732885734
-0.5476016856870281
-0.918553870588525
-1.04731067803646
0.153964474122534
-0.911579869247262
-0.768374559348672
-0.0448288320747848
1.05330015850352
0.5657275202844571
-0.0603515621576024
0.353733729101027
0.755790793787073
-1.01195503974263
0.660831667070393
0.709349734882655
-0.831614589667661
0.133749459038633
1.03573036050547
-1.03933506837467
0.230231331249379
-0.812882190697504
0.7298908045054679
-0.0702346656464152
-0.201392440482
-1.01196013419194
-6.56505081847056e-05
0.812878530830177
0.471653805066124
-0.730065005524199
0.300547625782554
0.0419435814639794
-0.744881026451814
-0.730062448156255
-0.0662720106694194
0.925015445867129
-1.06929067592903
-0.50654469539217
-3.50270888960032e-05
0.0603274044410273
-0.06617338067496301
0.966574985447641
-0.592401872994086
-0.849914895345031
-0.709358165686761
1.00314053843698
0.824570879896255
-0.659507445920625
-0.614527788673901
-0.477582975399368
-0.519618008949722
-0.577090431289406
-0.708153247246377
0.985622591239523
0.943596255137888
-1.10226428936575
-0.8188641088948631
-0.636986956812007
0.47163432775184
-0.131562040177
-0.941767600887384
0.865662828518364
-0.081010783647107
-1.0119332753152
-0.692871938103424
-0.0419478751716346
0.943674609629545
0.209978471464122
0.577132196995615
-0.133867732767674
0.386813093386438
-0.0448889072218652
-0.692928425456466
0.831569901610431
-0.549670945321552
0.866400524365993
0.629052250516548
0.5064793391914389
-0.276961724996152
-0.9985266682185699
-0.134564519709035