# vtk DataFile Version 2.0
created with he
ASCII
DATASET POLYDATA
POINTS 642 double
0.5532187223434448 -0.02945237420499325 -0.302156537771225
0.1869500130414963 0.09751962870359421 -0.8335639238357544
0.9621402025222778 -0.8249049782752991 -0.3823157548904419
-0.1322256922721863 -0.6797789931297302 -0.7975165843963623
0.7579754590988159 -0.5712509155273438 -0.1287230253219604
0.1971093863248825 -0.6516016125679016 -0.7974791526794434
0.3049853146076202 0.1548011302947998 -0.8741313219070435
0.247993677854538 -0.8718804717063904 -0.1030504107475281
1.100642561912537 -0.6435217261314392 -0.5706650614738464
0.1576160192489624 -1.032088160514832 -0.4715143442153931
0.460697740316391 0.3261376619338989 -0.03575390577316284
-0.2540046274662018 -1.020374655723572 -0.4769323468208313
-1.328163027763367 -0.3078384697437286 -0.4727714657783508
0.752849817276001 0.2308378368616104 -0.4872997999191284
-0.9626105427742004 -0.5071717500686646 -0.7669063210487366
0.2094920873641968 -0.7732499837875366 -0.05117523670196533
-0.2247558981180191 0.05851375311613083 -0.068094402551651
0.2936475574970245 -0.4164564907550812 -0.8145618438720703
-0.7294508218765259 -0.8731696605682373 -0.392411082983017
0.06611473858356476 -0.8576303720474243 -0.1040554940700531
0.5810624361038208 -0.9551901817321777 -0.2543588280677795
-1.024910688400269 0.6962100267410278 -0.6602993011474609
0.5938394665718079 -0.1492068469524384 -0.3472641110420227
0.6954528093338013 -0.2605302333831787 -0.3656065165996552
-0.9879724979400635 -0.224794015288353 -0.2285552322864532
0.3453397154808044 -0.2856395542621613 -0.8131599426269531
0.4431113302707672 0.858375608921051 -0.3128064274787903
0.08043535053730011 0.8663719892501831 -0.3220399022102356
-0.9255834221839905 -0.3670141398906708 -0.7629455327987671
0.3346379995346069 0.80290687084198 -0.2592075169086456
-1.239290952682495 -0.3944985270500183 -0.7276485562324524
-0.3071253299713135 -0.7769976258277893 -0.1251088380813599
0.07203559577465057 -1.038565516471863 -0.3644319176673889
1.280689477920532 0.3117451667785645 -0.7440721988677979
1.351163625717163 0.394779235124588 -0.6321249604225159
-0.6758165955543518 -0.3859208524227142 -0.1356134414672852
1.330267429351807 -0.4772027730941772 -0.44368577003479
1.250470757484436 -0.5564600229263306 -0.328778475522995
1.051976203918457 -0.7392145991325378 -0.4881876409053802
0.1817745268344879 -0.02411777526140213 0.05258572101593018
1.124433994293213 -0.7086902260780334 -0.3563507795333862
0.7626343965530396 0.9226633906364441 -0.5606449246406555
-0.1794905215501785 0.1724181324243546 -0.07636547088623047
1.093822836875916 0.4993510842323303 -0.8045389652252197
0.3743677735328674 -1.009784817695618 -0.4564790725708008
0.6787097454071045 -0.906292736530304 -0.5215753316879272
-0.6611993312835693 0.5741921067237854 -0.3085834383964539
1.009989619255066 0.3151065111160278 -0.8570060729980469
-0.978279709815979 0.420771986246109 -0.9204566478729248
0.2599665224552155 0.9942840337753296 -0.4756130278110504
0.7149016857147217 0.5650226473808289 -0.3255637884140015
0.1820982098579407 -1.00872266292572 -0.2635292708873749
0.4264437556266785 0.775738000869751 -0.9245483875274658
0.001509080640971661 0.2578720450401306 -0.8804353475570679
0.1169586926698685 0.3179702460765839 -0.9252796173095703
0.5391601324081421 0.2063743025064468 -0.09902223944664001
-0.6729263067245483 0.1306927502155304 -0.7503740191459656
0.9769234657287598 0.6083091497421265 -0.3802899420261383
1.404476642608643 0.3117114305496216 -0.5156259536743164
-0.4689502120018005 -0.7189674973487854 -0.1419743597507477
1.220911502838135 0.4842886924743652 -0.4169020652770996
-1.193583965301514 -0.2769493758678436 -0.7809176445007324
1.371126532554626 0.1901915818452835 -0.4000516831874847
-0.9388121962547302 0.6648179292678833 -0.8845430612564087
-0.5831953287124634 -0.8687777519226074 -0.2820518910884857
0.5969255566596985 0.722626805305481 -0.9061670303344727
0.3270846307277679 0.5747730731964111 -0.9790816307067871
0.1750155389308929 0.2195178866386414 -0.8851312398910522
0.2409602701663971 0.3839669823646545 -0.9547983407974243
-0.4823443293571472 -0.06964264810085297 -0.6767886877059937
0.7108263373374939 0.3365480303764343 -0.9143208861351013
0.02175906300544739 0.3473612368106842 -0.06530821323394775
0.3852220475673676 0.09476947039365768 0.05139768123626709
0.4323577880859375 0.2132589817047119 -0.9031378030776978
0.6675034165382385 0.4577536582946777 -0.9295073747634888
-0.2690780460834503 0.06255297362804413 -0.7216358184814453
-0.1505366563796997 0.2988624274730682 -0.09721553325653076
-0.239952564239502 0.6460351943969727 -1.003839254379272
-1.119097113609314 -0.2995729148387909 -0.2891540825366974
0.3334555625915527 -0.01963977888226509 0.06822508573532104
-0.92182457447052 0.7140817046165466 -0.5376664400100708
-0.0224427655339241 0.9273732900619507 -0.3970061838626862
-0.2236971259117126 0.8990856409072876 -0.4086774587631226
-1.230574011802673 -0.5211629867553711 -0.6171404123306274
-0.4629087448120117 0.1916036158800125 -0.1452487111091614
0.9806496500968933 -0.5291217565536499 -0.7026224732398987
0.7995474934577942 -0.7068766951560974 -0.6697736978530884
0.2927440702915192 -0.7385802268981934 -0.7624107599258423
-0.8293634653091431 -0.03388842567801476 -0.1936807334423065
0.1358158588409424 -0.9380162358283997 -0.6518256664276123
0.8775071501731873 -0.7811440825462341 -0.1810597777366638
-0.6274043917655945 -0.6459137797355652 -0.1635271906852722
1.428731918334961 -0.2162841856479645 -0.54659104347229
0.6807758808135986 -0.6856745481491089 -0.08579301834106445
0.1080709919333458 0.9899969100952148 -0.7965699434280396
-1.063105344772339 0.5191974639892578 -0.8913317322731018
-0.1847669184207916 0.9333845973014832 -0.877665102481842
-0.3705993890762329 -0.1800700575113297 -0.6858946681022644
-0.5448794364929199 -0.2022951394319534 -0.6852707266807556
-0.7131637930870056 -0.2202595174312592 -0.7030879855155945
0.5587822198867798 -0.8703961372375488 -0.6220688819885254
-1.024204969406128 -0.2672591805458069 -0.7724281549453735
0.5440167188644409 0.8404476046562195 -0.8595589995384216
-0.6177628636360168 0.6629736423492432 -0.976502537727356
0.02764686569571495 0.06471225619316101 -0.784710705280304
-0.08419832587242126 -0.3859483897686005 -0.009654909372329712
-0.6525880694389343 0.8645280599594116 -0.8332803845405579
-0.06168346107006073 0.6453558206558228 -1.004065752029419
-0.49562007188797 -0.5866410136222839 -0.1118862628936768
-0.3759817481040955 -0.4977238774299622 -0.7742427587509155
-0.9593634605407715 0.03372200578451157 -0.2415352165699005
1.101752400398254 -0.1223840117454529 -0.3691110610961914
-0.4921757876873016 -0.4143821001052856 -0.7444316744804382
0.8679592609405518 0.8057454228401184 -0.7477022409439087
-0.1634250432252884 -0.9990234375 -0.5804632306098938
-0.464750200510025 0.4468950033187866 -0.9474185705184937
-0.822358250617981 0.4237398505210876 -0.9292089343070984
-0.6305087804794312 0.2361185699701309 -0.8097437620162964
0.4233799576759338 -0.8673491477966309 -0.1080684661865234
-0.2617564797401428 -0.9361528754234314 -0.6658013463020325
0.678876519203186 0.1005436480045319 -0.477780282497406
-1.178624153137207 0.5618243217468262 -0.6752660274505615
1.25413703918457 -0.1438595056533813 -0.7324715256690979
1.334794044494629 -0.2590562403202057 -0.6488394141197205
1.40705406665802 0.06667777895927429 -0.6579261422157288
0.1698314249515533 -0.669605553150177 -0.01844304800033569
0.04604347050189972 -0.3150857985019684 0.01988869905471802
-0.248759388923645 -0.2043420076370239 -0.04582220315933228
-0.6745799779891968 -0.9181464314460754 -0.4919307827949524
0.5918915271759033 -0.9657487273216248 -0.4394183754920959
-0.113169863820076 -0.1383117884397507 -0.01903641223907471
0.6024711132049561 0.3297239542007446 -0.3114159405231476
1.167356491088867 0.5902996063232422 -0.7121020555496216
-0.9071202874183655 -0.708804726600647 -0.3232565522193909
-1.12419581413269 -0.1608399003744125 -0.2862095832824707
-0.04674683511257172 -0.4607666730880737 -0.7973476648330688
-0.7879518866539001 0.7191433906555176 -0.4502808749675751
0.7550007700920105 -0.01679237559437752 -0.4925422072410583
0.8365638852119446 -0.1232982948422432 -0.4626630544662476
-0.3187479376792908 0.2519178986549377 -0.1260430812835693
-0.05703666061162949 -0.7794765830039978 -0.7713088989257812
1.464048624038696 -0.04155450686812401 -0.5318087339401245
1.453793287277222 0.1418143510818481 -0.5203418731689453
-0.859585165977478 -0.2537269592285156 -0.7354247570037842
0.08203747868537903 0.5805005431175232 -0.1449288725852966
1.051590085029602 -0.2930361330509186 -0.7604641318321228
-0.3399794101715088 -0.994448721408844 -0.3652012944221497
0.6581827402114868 -0.1899316906929016 -0.8257594704627991
0.1765773892402649 0.7896194458007812 -0.2536520957946777
-0.3043032288551331 0.256122887134552 -0.833127498626709
0.2716188728809357 0.1967627853155136 0.03743690252304077
1.044319868087769 -0.4940496683120728 -0.2060847878456116
1.163183689117432 0.2312988638877869 -0.8098900318145752
0.5279549360275269 0.6345303058624268 -0.2053723633289337
-0.2480992376804352 -0.3348910212516785 -0.04130229353904724
-0.7686372995376587 -0.5624510049819946 -0.1874725520610809
-1.233825445175171 0.1072046682238579 -0.8401634693145752
-1.220871925354004 0.3561747372150421 -0.4653051793575287
0.563409686088562 -0.7898993492126465 -0.08367243409156799
-0.3984664678573608 0.4512241184711456 -0.1971276104450226
0.8586620092391968 0.7321889400482178 -0.3671977519989014
-1.390861511230469 -0.09893766790628433 -0.707288384437561
0.5379379987716675 -0.0232627484947443 -0.1259496808052063
1.073863625526428 -0.3658664524555206 -0.2593830823898315
0.2777138352394104 -0.9515851140022278 -0.1759706735610962
0.8209573030471802 -0.3469467759132385 -0.3195928335189819
-0.05610186606645584 1.018415808677673 -0.5820257663726807
-0.1220960095524788 0.4455758631229401 -0.9662653803825378
1.016855716705322 0.03322897106409073 -0.8299813270568848
[...]
POINT_DATA 642
SCALARS color double 1
LOOKUP_TABLE default
0.6837201118469238
0.5565356612205505
0.8257154822349548
0.4457039535045624
0.7548205852508545
0.5600634217262268
0.5975226759910583
0.5777326822280884
0.8738095760345459
0.5463496446609497
0.6515928506851196
0.4034169912338257
0.03042234666645527
0.7530407905578613
0.1573581099510193
0.5643632411956787
0.4135734140872955
0.5935856699943542
0.2383213341236115
0.5145763754844666
0.6933887004852295
0.1357247829437256
0.6978254318237305
0.7331100106239319
0.1485513299703598
0.6115354299545288
0.645486056804657
0.5195491313934326
0.1702155470848083
0.6078193783760071
0.06128260493278503
0.3849711716175079
0.5166323781013489
0.93632972240448
0.9608014225959778
0.2569454610347748
0.9535452723503113
0.925836443901062
0.8569104075431824
0.5547385215759277
0.8820709586143494
0.7564383745193481
0.4292915165424347
0.8714414238929749
0.6216152906417847
0.7272961139678955
0.2620212137699127
0.8423309326171875
0.1519170850515366
0.5818901658058167
0.7398635745048523
0.5548509359359741
0.639698326587677
0.4921424686908722
0.5322316288948059
0.6788383722305298
0.2579491138458252
0.8308488726615906
0.9793139696121216
0.3287785053253174
0.9155721664428711
0.07715406268835068
0.9677333831787109
0.1656219363212585
0.289107620716095
0.6988970637321472
0.6051965355873108
0.552391529083252
0.5752903819084167
0.3241274952888489
0.7384483218193054
0.4991741478443146
0.6253843903541565
0.6417519450187683
0.7234047651290894
0.3981828391551971
0.4393455684185028
0.4082964658737183
0.1030191481113434
0.6074087619781494
0.1715207695960999
0.4838253557682037
0.4139410853385925
0.0643095076084137
0.330876350402832
0.8321427702903748
0.7692562341690063
0.5932719707489014
0.2036273032426834
0.5387796759605408
0.7963271737098694
0.2737562954425812
0.9877364635467529
0.7280135750770569
0.5291454195976257
0.1224619299173355
0.4274593591690063
0.3629302084445953
0.3024125695228577
0.243976891040802
0.6856520175933838
0.1359698325395584
0.6805247664451599
0.2771042585372925
0.5012186765670776
0.46238112449646
0.2650114297866821
0.4701992869377136
0.3195175528526306
0.3610612154006958
0.1584856361150742
0.8741949200630188
0.3207135498523712
0.7930117845535278
0.4348701536655426
0.330236941576004
0.2060598284006119
0.2726783156394958
0.6386344432830811
0.4007251858711243
0.7273539900779724
0.08234876394271851
0.9271094799041748
0.9551171064376831
0.9802089929580688
0.5505913496017456
0.5076068043708801
0.4052383601665497
0.2573748826980591
0.6971490383148193
0.45232093334198
0.7008227705955505
0.8969755172729492
0.1766267418861389
0.1012486591935158
0.4753859341144562
0.2180072069168091
0.753787636756897
0.7821099758148193
0.3809353113174438
0.4718128442764282
1
0.9964389204978943
0.1931330114603043
0.5201054215431213
0.8567764163017273
0.3735627830028534
0.7201682329177856
0.5529338717460632
0.3859511017799377
0.5859363675117493
0.8542519211769104
0.8955265283584595
0.6749474406242371
0.4054675996303558
0.224714070558548
0.06318046897649765
0.06767849624156952
0.6872588992118835
0.3532535433769226
0.7897833585739136
0.008650697767734528
0.678413987159729
0.8645107746124268
0.5880528688430786
0.776690661907196
0.4721374213695526
0.4492214024066925
0.8447150588035583
0.6840531826019287
0.7498688697814941
0.6155399084091187
0.7799477577209473
0.3801209032535553
0.9191027879714966
0.6824391484260559
0.8640815019607544
0.9898116588592529
0.8691304922103882
0.7080242037773132
0.02544637583196163
0.2323627769947052
0.1033679395914078
0.7102451920509338
0.6695233583450317
0.4620398581027985
0.3425159752368927
0.4920976459980011
0.7851210832595825
0.8906176090240479
0.1131782680749893
0.2003313153982162
0.4391788244247437
0.07443401962518692
0.4124593138694763
0.5289084315299988
0.04465304315090179
0.3457290232181549
0.1646061539649963
0.4731617569923401
0.3005124926567078
0.6022819876670837
0.5876567363739014
0.2141121625900269
0.503913402557373
0.7032881379127502
0.04205192998051643
0.1983583718538284
0.6567107439041138
0.3038789331912994
0.2109082192182541
0.7706770896911621
0.7320451736450195
0.6116292476654053
0.7956807613372803
0.190434604883194
0.425287127494812
0.7540879249572754
0.2770555317401886
0.3731493055820465
0.4523466825485229
0.3286020457744598
0.8906969428062439
0.7133122682571411
0.4381628334522247
0.5738939046859741
0.6659359931945801
0.671061098575592
0.2137784212827682
0.6246995329856873
0.467476099729538
0.6434218287467957
0.6403019428253174
0.6494132876396179
0.830643892288208
0.7479589581489563
0.4039801955223083
0.7079236507415771
0.8035464286804199
0.5383808612823486
0.4878235161304474
0.7458518743515015
0.5504893660545349
0.4890249371528625
0.4965356588363647
0.2096735686063766
0.5169024467468262
0.1641761213541031
0.4053219854831696
0.1312209218740463
0.3088523149490356
0.3702148199081421
0.3433871865272522
0.4747605323791504
0.5039868354797363
0.9547796845436096
0.4376638829708099
0.9392341375350952
0.6917619705200195
0.5462506413459778
0.3645525276660919
0.2122053354978561
0.8896130323410034
0.4786522090435028
0.4235964417457581
0.4941273033618927
0.6700277924537659
0.6769898533821106
0.6296447515487671
0.6943232417106628
0.2665873467922211
0.6791743040084839
0.5830997824668884
0.3652539551258087
0.6874759793281555
0.6123932003974915
0.5343702435493469
0.4177607297897339
0.7602158188819885
0.8269467353820801
0.463076651096344
0.1583261489868164
0.13894222676754
0.6590164303779602
0.7363288402557373
0.3087058067321777
0.4592242836952209
0.8643682599067688
0.7456222176551819
0.1953454315662384
0.7804543375968933
0.3604635000228882
0.6183226704597473
0.686609148979187
0.6856173872947693
0.3468138575553894
0.636046290397644
0.8091482520103455
0.5133882761001587
0.4707092046737671
0.1077641323208809
0.4382409453392029
0.9057807922363281
0.2515046298503876
0.2303561568260193
0.3408574461936951
0.2253471463918686
0.2728310823440552
0.5367186665534973
0.3674893975257874
0.9384632110595703
0.577811062335968
0.7793920636177063
0.2298876792192459
0.7833371162414551
0.8476842045783997
0.9662111401557922
0.5210147500038147
0.1022565737366676
0.6378437280654907
0.4727268517017365
0.5670363903045654
0.2344045639038086
0.2984831631183624
0.006868119817227125
0.254859447479248
0.3428132236003876
0.008937853388488293
0.3917380571365356
0.2399854809045792
0.2920245826244354
0.5652573108673096
0.3648180067539215
0.6087469458580017
0.5889409780502319
0.757057249546051
0.7409263253211975
0.528235912322998
0.5727139115333557
0.7415617108345032
0.7835714221000671
0.2993374466896057
0.2087609022855759
0.1844944804906845
0.7095898985862732
0.04549116268754005
0.4541934132575989
0.07551500201225281
0.9207354784011841
0.6190845966339111
0.777341365814209
0.5943690538406372
0.3581012487411499
0.8184426426887512
0.349519282579422
0.4081056416034698
0.9263363480567932
0.4379100799560547
0.6928185820579529
0.9528074860572815
0.2519073486328125
0.197519063949585
0.1530366539955139
0.6599048972129822
0.7674227356910706
0.7907158732414246
0.1608798205852509
0.1092467233538628
0.04935022071003914
0.263016551733017
0.4952470362186432
0.581055223941803
0.7961994409561157
0.8350815176963806
0.795758843421936
0.1333016157150269
0.9490700960159302
0.3340294063091278
0.182266503572464
0.3920204937458038
0.8810825943946838
0.6157483458518982
0.2089669108390808
0.5422891974449158
0.7208293080329895
0.6500017642974854
0.6432616114616394
0.1620530784130096
0.01648815721273422
0.1386739462614059
0.3144942820072174
0.7197838425636292
0.2665789127349854
0.3179037570953369
0.6389561295509338
0.5116575956344604
0.1170412600040436
0.6394878029823303
0.004113884642720222
0.5336757898330688
0.3590452969074249
0.1678717285394669
0.02022617869079113
0.8106534481048584
0.3983346521854401
0.816311240196228
0.5002567768096924
0.3971302211284637
0.06626486778259277
0.1280063688755035
0.6698368787765503
0.8702850341796875
0.9421574473381042
0.415457546710968
0.907511293888092
0.4397663474082947
0.6883008480072021
0.1571842581033707
0.2149838209152222
0.8349251747131348
0.8607258796691895
0.2535565495491028
0.08786286413669586
0.8360507488250732
0.9162980318069458
0.08787557482719421
0.03039879165589809
0.05918273702263832
0.8088638782501221
0.6729313731193542
0.8475224375724792
0.4203352332115173
0.02814808115363121
0.5119981169700623
0.2982400953769684
0.3749974071979523
0.6245466470718384
0.1198438405990601
0.06965430080890656
0.2619414925575256
0.314904510974884
0.8818868398666382
0.8146557807922363
0.4532833099365234
0.5509011149406433
0.2634921073913574
0.8138540983200073
0.5556080341339111
0.3989580571651459
0.2843093574047089
0.8821620345115662
0.6984044909477234
0.6701721549034119
0.5849980115890503
0.7248625159263611
0.285809189081192
0.4364709258079529
0.3234061300754547
0.5432037115097046
0.6627135276794434
0.09516608715057373
0.9611127376556396
0.4507147967815399
0.3241526186466217
0.9146169424057007
0.3221177458763123
0.3429997563362122
0.4919670522212982
0.3272888660430908
0.4615068435668945
0.7782340049743652
0.2515777945518494
0.3049872517585754
0.8294965028762817
0.2208853662014008
0.7203258275985718
0.5557276606559753
0.6081907749176025
0.6682819724082947
0.1166737154126167
0.07378743588924408
0.504252552986145
0.2857570350170135
0.3726997375488281
0.9712592363357544
0.2063075453042984
0.9842336177825928
0.301572173833847
0.1314711421728134
0.53090500831604
0.7670373320579529
0.9111132621765137
0.5168953537940979
0.2584083080291748
0.6880784630775452
0.7586074471473694
0.6556958556175232
0.5989477038383484
0.7275742888450623
0.4496463537216187
0.1165935322642326
0.269049197435379
0.3247263729572296
0.4204354286193848
0.07139002531766891
0.4861418008804321
0
0.6847997307777405
0.04574230313301086
0.571160614490509
0.8269219994544983
0.4760102033615112
0.6171111464500427
0.7331487536430359
0.2906056344509125
0.6562930345535278
0.3621739149093628
0.4552376866340637
0.440655916929245
0.6602837443351746
0.3148195743560791
0.8228516578674316
0.6922189593315125
0.5282701849937439
0.7488930225372314
0.7807497382164001
0.8802075982093811
0.1528504937887192
0.5671063661575317
0.652248740196228
0.2497132420539856
0.6566289663314819
0.1711466908454895
0.113714411854744
0.4915136694908142
0.4338053166866302
0.7074653506278992
0.5790085792541504
0.8365346789360046
0.5254010558128357
0.7397433519363403
0.7911611199378967
0.7946693301200867
0.8764068484306335
0.9293549060821533
0.9751144647598267
0.555627703666687
0.1617825329303741
0.3417854607105255
0.4706680178642273
0.9188395142555237
0.890186607837677
0.5682492852210999
0.88744056224823
0.7090205550193787
0.9351856708526611
0.3901408910751343
0.4502057135105133
0.4880427122116089
0.502808153629303
0.2380033433437347
0.2106960713863373
0.3028469979763031
0.112409733235836
0.3019247055053711
0.1809113621711731
0.1102370917797089
0.02770933881402016
0.2850324511528015
0.05875604227185249
0.5123138427734375
0.08528058230876923
0.5641736388206482
0.669230043888092
0.6240831613540649
0.3920177221298218
0.2586076855659485
0.3608817756175995
0.638627290725708
0.7347487211227417
0.5837374329566956
0.3841592073440552
0.9037657380104065
0.2638013064861298
0.8393866419792175
0.8380272388458252
0.3610759675502777
0.7326817512512207
0.7036880254745483
0.4113574922084808
0.7770363092422485
0.3672048151493073
0.717264711856842
0.1718354970216751
0.5670264363288879
0.4601052105426788
0.7050034999847412
0.2070880085229874
0.3001160025596619
0.5935206413269043
0.8959981799125671
0.7822391986846924
0.5984150767326355
0.616929829120636
0.179536834359169
0.3092099726200104
0.5089252591133118
0.4282889366149902
0.401848316192627
0.804305374622345
0.4556337893009186
0.2269688099622726
0.3719830513000488
0.0288581233471632
0.6807413697242737
0.6795458793640137
0.7341148853302002
0.03294394165277481
0.9441754221916199
0.5101257562637329
0.2326137274503708
0.979877233505249
0.6188933849334717
0.4209847152233124
0.7947636246681213
0.2256691753864288
0.1506983637809753
0.6813617944717407
0.5925834178924561
0.3600802719593048
0.8310244679450989
0.5129461288452148
0.2140995413064957
0.5372880101203918
0.8300235867500305
0.6501314043998718
0.1079205647110939
0.3643431663513184
0.6326316595077515
0.8472697734832764
0.3891859650611877
0.1832468509674072
