# vtk DataFile Version 2.0
created with he
ASCII
DATASET POLYDATA
POINTS 12 double
0 0 2
1.788854 0 0.894427
0.552786 1.701302 0.894427
-1.447214 1.051462 0.894427
-1.447214 -1.051462 0.894427
0.552786 -1.701302 0.894427
1.447214 1.051462 -0.894427
-0.552786 1.701302 -0.894427
-1.788854 0 -0.894427
-0.552786 -1.701302 -0.894427
1.447214 -1.051462 -0.894427
0 0 -2
POLYGONS 20 80
3 1 2 0
3 2 3 0
3 3 4 0
3 4 5 0
3 5 1 0
3 6 2 1
3 6 7 2
3 7 3 2
3 7 8 3
3 8 4 3
3 8 9 4
3 9 5 4
3 9 10 5
3 10 6 1
3 10 1 5
3 7 6 11
3 8 7 11
3 9 8 11
3 10 9 11
3 6 10 11
CELL_DATA 20
SCALARS id int 1
LOOKUP_TABLE default
0
1
2
3
4
5
6
7
8
9
10
11
12
13
14
15
16
17
18
19
