# vtk DataFile Version 2.0
created with he
ASCII
DATASET POLYDATA
POINTS 2562 double
0.660203754901886 0.6287594437599182 0.2251558005809784
-0.8019001483917236 0.5674297213554382 -0.1023215129971504
-0.8028803467750549 0.2819827497005463 -0.2806353271007538
-0.3827433884143829 -0.7906801700592041 -0.2589848935604095
-0.159085676074028 -0.6617801189422607 0.3274720311164856
0.3014070689678192 0.1212750226259232 -0.1920217722654343
-0.3650259971618652 -0.7007004618644714 -0.3125663995742798
-0.2464356869459152 -0.4615935385227203 -0.2860492169857025
-0.6368095278739929 -0.6880217790603638 -0.1913973689079285
0.1963697671890259 -0.6994662284851074 -0.3268857002258301
-0.06575649231672287 0.7168420553207397 -0.3274340629577637
-0.5805520415306091 -0.173409178853035 0.3146612644195557
0.05079078301787376 0.08989512920379639 -0.1136004626750946
0.5336844325065613 0.6859433650970459 -0.2669223546981812
-0.7769619822502136 -0.6295475363731384 4.082556552020833e-05
-0.5529727339744568 -0.62556391954422 -0.2910328209400177
0.1708752363920212 -0.5293455719947815 -0.2988887131214142
0.153205543756485 0.03020868264138699 -0.1261160373687744
-0.6592332124710083 -0.3431813418865204 0.3247614204883575
-0.9921306967735291 -6.145781412669749e-07 0.0682746097445488
0.8858779668807983 0.4595849514007568 -0.03441406786441803
-0.4991190433502197 0.4457137882709503 -0.3265255689620972
0.4312064647674561 -0.8828059434890747 -0.1019290313124657
0.5439295768737793 -0.826965868473053 -0.07769753038883209
0.286270946264267 -0.4935629367828369 -0.3039259612560272
-0.107769750058651 -0.85318523645401 0.27409827709198
0.2202261090278625 0.3776691555976868 -0.2468528896570206
-0.2068010121583939 0.4299260675907135 -0.2657825946807861
-0.2202124446630478 -0.3776360154151917 0.2468356639146805
-0.03387847542762756 -0.7632744908332825 0.3205325305461884
0.7684794068336487 -0.04584025964140892 0.3190190196037292
0.4015292823314667 0.06063292920589447 -0.2316125184297562
0.2309335470199585 -0.3235026597976685 -0.2273643463850021
-0.6840572357177734 0.7199755907058716 -0.06380289047956467
0.5716149210929871 0.292810469865799 0.3227746784687042
0.5336955785751343 -0.6859462857246399 -0.2669149041175842
-0.8553897142410278 0.3022766709327698 0.2302751243114471
0.4492625296115875 0.6210966110229492 0.3198944926261902
-0.1361161321401596 0.3177409470081329 0.2019597440958023
0.3277794420719147 -0.327782541513443 -0.2594752609729767
0.4479192793369293 -0.7681576609611511 -0.2490393370389938
-0.8040294051170349 0.348936140537262 -0.2607058882713318
-0.8554086089134216 0.3022742569446564 -0.2302560657262802
-0.5854196548461914 0.5032820105552673 0.31841641664505
-0.4078726768493652 0.5892717838287354 0.3276385068893433
-0.2739382088184357 0.3538291156291962 0.2518230080604553
-0.6840479373931885 0.7199661135673523 0.06386434286832809
0.8018836379051208 -0.5674242377281189 0.1023697480559349
-0.2916893064975739 -0.239960566163063 -0.2176136523485184
0.7509500980377197 -0.6130940914154053 -0.1346413940191269
-0.2067839801311493 0.4298977553844452 0.2657673954963684
0.8967776298522949 -0.2492163330316544 0.2009949833154678
-0.9254136085510254 -0.3284759223461151 -0.1034000590443611
-0.2455755770206451 -0.2098225951194763 -0.1911319196224213
-0.03910520672798157 -0.9933426380157471 0.05904130637645721
-0.1787039488554001 0.8434759974479675 -0.2723952829837799
-0.4604653418064117 -0.8450731039047241 0.1492835581302643
-0.2309510707855225 0.3235044181346893 -0.2273700833320618
-0.08035473525524139 0.5061975717544556 0.2815515100955963
0.2848177552223206 -0.6323838233947754 -0.3280375301837921
-0.7377268671989441 -0.5286064743995667 0.2299019247293472
-0.9618231654167175 0.19883131980896 0.1028853952884674
-0.5397116541862488 0.08804026246070862 0.2953981459140778
-0.9907687902450562 0.1355624794960022 3.644593380158767e-05
-0.06575290858745575 0.7168328762054443 0.3274347186088562
0.07831291109323502 -0.9969288110733032 6.633580051129684e-05
-0.2079355418682098 -0.5636131763458252 0.3132582306861877
0.4846015572547913 -0.2388554662466049 -0.2928726673126221
0.6089370846748352 -0.7419431805610657 -0.1542004495859146
0.2206177413463593 0.8862024545669556 0.2233438193798065
0.5760752558708191 0.7190216183662415 -0.2134598791599274
-0.1871868073940277 0.2934499979019165 0.2031206786632538
0.6246994733810425 0.02747312374413013 -0.3193989396095276
-0.7509309649467468 -0.6130723357200623 0.1347041130065918
-0.02665427513420582 -0.5118520855903625 0.2815557420253754
0.4285594522953033 -0.6781953573226929 0.3077481091022491
-0.4496480524539948 -0.03013549745082855 0.2533476650714874
0.977286159992218 0.2023502886295319 -0.03425958007574081
-0.1158457025885582 0.4169427752494812 -0.2446893006563187
-0.1502046436071396 -0.1496719121932983 -0.1441327184438705
-0.6248124837875366 -0.08293817192316055 0.3204696774482727
0.4062072932720184 -0.734556257724762 0.2882929742336273
-0.02665671892464161 0.5118473172187805 0.2815537750720978
-0.459990531206131 -0.8835833072662354 -0.04773995652794838
-0.1532054990530014 -0.03020933270454407 0.1261160522699356
0.2455610334873199 -0.2098422050476074 -0.1911327093839645
-0.09560491144657135 -0.6705508828163147 -0.3272415697574615
0.1275203675031662 0.36881023645401 -0.2237906903028488
-5.56154645892093e-06 0.4755688011646271 -0.2650857865810394
-0.0348290279507637 0.4032637178897858 -0.2309632748365402
-0.9081514477729797 0.06070417538285255 0.2269243597984314
-0.2500579059123993 -0.150865375995636 0.1768549680709839
-0.1903828233480453 0.4803837835788727 -0.2833295464515686
-0.7083545327186584 -0.1822444200515747 -0.3263732492923737
0.6658788323402405 -0.2208061516284943 0.3281095325946808
0.4847407341003418 0.5048077702522278 0.32811239361763
-0.9598210453987122 0.130786806344986 0.1362711936235428
-0.1928664445877075 0.9754310250282288 0.05801113694906235
0.1537498980760574 -0.9647882580757141 0.1169273927807808
-0.4680797457695007 0.3578599095344543 -0.3099056780338287
1.007036098599201e-05 -0.2870835363864899 0.1746364682912827
-0.0446951687335968 0.3131595253944397 -0.187998503446579
-0.03601577505469322 -0.8581519722938538 0.2748927772045135
0.04716337472200394 0.2611711025238037 0.1651967763900757
0.6436569094657898 0.7632733583450317 0.03037870489060879
0.961832582950592 -0.1988373547792435 0.1028553619980812
0.0869498997926712 -0.3402360379695892 -0.20462466776371
0.1361094862222672 0.3177201151847839 0.2019492238759995
0.847200334072113 -0.5161290168762207 -0.06868010014295578
0.5716232657432556 0.2928262948989868 -0.3227772414684296
-0.07831145823001862 -0.9969289302825928 7.244165317388251e-05
0.142429530620575 -0.2639054954051971 0.1804048866033554
0.5805624127388 0.1734208613634109 -0.3146648108959198
-0.3004929423332214 -0.7204090356826782 0.315835177898407
0.08697386831045151 -0.3402096331119537 0.2046151459217072
-0.05079471692442894 -0.08989386260509491 0.1136006191372871
0.7522902488708496 -0.3925515711307526 -0.2822971045970917
0.02963712625205517 0.5911859273910522 -0.3107220232486725
0.3811640739440918 -0.2997093200683594 0.2693571746349335
0.036021638661623 -0.8581470847129822 0.2748962640762329
-0.7084314227104187 0.3040813207626343 -0.3187193274497986
0.8471938967704773 0.5161223411560059 0.06871913373470306
-0.3163402378559113 -0.8114362359046936 0.2654271125793457
0.7084015607833862 -0.3040809333324432 0.3187269866466522
0.9800834655761719 0.06652086228132248 0.1023682281374931
0.1009294167160988 -0.1197544187307358 -0.1262446641921997
0.1139737516641617 0.9416221976280212 -0.1742557883262634
-0.6592451333999634 0.3431839942932129 -0.3247595429420471
-0.353649765253067 -0.03039734065532684 -0.2064637541770935
0.1531991064548492 -0.0301949568092823 -0.1261135190725327
-0.03188265115022659 0.674974262714386 0.3271171450614929
-0.05006787925958633 0.1488028317689896 -0.1263533681631088
-0.6248412132263184 -0.08294606953859329 -0.320475846529007
-0.1009360924363136 -0.1197630688548088 0.1262477189302444
-0.3045132458209991 1.576090835442301e-05 -0.1825211495161057
-0.6201382875442505 -0.2576406598091125 0.3267538547515869
0.5397226214408875 -0.08804084360599518 0.2954022884368896
-0.1469919681549072 -0.2077267169952393 0.16061931848526
-0.570421040058136 -0.5647305250167847 -0.3075650036334991
-0.8858751654624939 0.4595774114131927 0.03446521610021591
-0.8352856636047363 2.676793883438222e-06 0.2908188700675964
0.4847411513328552 -0.5048075318336487 0.32811239361763
0.4911809861660004 0.6531665325164795 0.3007910549640656
-0.5336976647377014 0.6859359741210938 -0.2669204771518707
0.0391075499355793 -0.9933688044548035 -0.05890917778015137
-0.2206382751464844 -0.8862584829330444 -0.223273754119873
0.6840543150901794 -0.7199804782867432 -0.0637957975268364
0.6840453743934631 -0.7199673652648926 0.06386834383010864
-0.4911738038063049 -0.6531580090522766 0.3007966279983521
-0.3467721343040466 -0.6123920679092407 -0.3280908763408661
-0.359026163816452 -0.8477917909622192 -0.2142855226993561
0.798183798789978 0.217371329665184 -0.2954815924167633
0.8565619587898254 -0.05621804296970367 0.2752676904201508
0.688537061214447 -0.4978525042533875 -0.2815284729003906
0.885876476764679 -0.4595848023891449 -0.0344259962439537
0.2222145795822144 0.6489755511283875 -0.3277711272239685
-0.2309224754571915 -0.3234660923480988 0.2273464798927307
-0.1484197676181793 -0.5771058201789856 0.3118805885314941
0.2455771118402481 0.2098340392112732 0.1911359876394272
-0.06576433777809143 -0.7168341875076294 -0.3274345695972443
0.896170973777771 0.3176611661911011 0.1703877598047256
-0.7052793502807617 -0.1252362877130508 0.3276584446430206
0.776960015296936 0.6295499205589294 3.160625419695862e-05
0.2662876844406128 0.9582430720329285 -0.05677539110183716
-0.1885358840227127 0.9305449724197388 -0.1726652383804321
-0.5272911190986633 -0.5346221923828125 -0.3234089016914368
0.4015520215034485 -0.06062424182891846 0.2316229641437531
0.8382011651992798 -0.1691015660762787 -0.2777018845081329
[...]
POINT_DATA 2562
SCALARS fx double 1
LOOKUP_TABLE default
-14.46563529968262
16.35750579833984
2.314863204956055
7.599665641784668
0.4895491600036621
10.30079650878906
-33.73053741455078
-12.54291915893555
55.44087982177734
4.620015144348145
-1.073694229125977
-19.31974411010742
7.99345064163208
-1.50385856628418
-101.1685104370117
-32.81204605102539
8.395693778991699
16.16174697875977
-29.78169631958008
-39.42735290527344
89.29106140136719
0.4433996677398682
-11.32644462585449
9.919797897338867
13.19528007507324
-0.7132640480995178
9.087587356567383
-9.663818359375
-9.124114036560059
-2.484990119934082
74.77900695800781
15.05567169189453
8.442668914794922
-32.19583511352539
6.809020042419434
-1.543241500854492
14.1651725769043
33.99349212646484
-4.574090003967285
14.78815460205078
-4.726700782775879
-12.08088874816895
14.16569519042969
-47.43613433837891
-5.189764022827148
-11.66764068603516
-32.10588073730469
-16.4440975189209
-10.16072654724121
-41.12914276123047
-9.675819396972656
-77.16665649414062
19.64435577392578
-8.390628814697266
-2.229830503463745
-0.6154899597167969
31.03645324707031
-8.445955276489258
-4.075148582458496
-0.4576947689056396
11.81684303283691
19.66477584838867
-27.0850830078125
-127.4201126098633
-1.072748422622681
10.40651893615723
-7.403780937194824
24.47946166992188
-40.75666427612305
-8.360001564025879
-29.6499080657959
-6.271661758422852
14.93357467651367
41.13018035888672
-1.340207099914551
39.82133483886719
-19.32852745056152
98.89846801757812
-4.849176406860352
-9.74428653717041
-12.59383392333984
21.34482955932617
-1.333530902862549
-37.61841583251953
-16.16598129272461
8.424541473388672
0.2673837244510651
4.604877471923828
-0.0001430561533197761
-4.598873138427734
19.77786254882812
-9.350101470947266
-9.668413162231445
-20.60063171386719
0.928349494934082
0.3637247085571289
52.81565093994141
-11.38145160675049
-6.370425224304199
-18.8509349822998
0.0004027834511362016
-1.559283256530762
-0.2905322313308716
2.049805879592896
71.21962738037109
-19.59082794189453
2.993915557861328
4.581676483154297
32.4451789855957
6.77578067779541
-10.40700054168701
5.156211853027344
19.32730865478516
-26.50823593139648
3.004378795623779
-7.992985725402832
1.421987533569336
1.173864483833313
18.06301116943359
0.2909194231033325
-56.87643814086914
32.42380142211914
2.787617444992065
56.87480163574219
-19.18727111816406
10.65294075012207
-8.307947158813477
-29.98855972290039
-11.91182708740234
16.16083717346191
0.08214151859283447
-5.291172027587891
-12.4965991973877
-10.65356254577637
-10.80049705505371
0.8709592819213867
26.89753341674805
-6.793986320495605
-52.77509689331055
-89.20050811767578
-45.74281692504883
0.3678720891475677
40.40347671508789
1.444793701171875
2.239119529724121
8.380901336669922
32.23998641967773
32.09708404541016
-40.41514587402344
-0.9655499458312988
16.67935562133789
55.12165069580078
-16.0334587097168
0.9630298614501953
89.22560119628906
-0.6623674631118774
-8.380313873291016
-5.608749866485596
8.403610229492188
-1.071123242378235
-61.2519645690918
-8.149895668029785
101.1427764892578
16.35540771484375
13.72353935241699
-29.35484886169434
15.02056121826172
-9.079953193664551
1.148921132087708
18.72362518310547
33.99701690673828
7.995931148529053
15.44133377075195
7.36099100112915
3.472308397293091
-133.156982421875
16.17575454711914
77.25131225585938
13.8188591003418
-76.80377960205078
-0.9112262725830078
-11.62610149383545
29.67276763916016
20.35556983947754
-1.386136531829834
-2.239910840988159
39.81162643432617
2.805873870849609
47.38657760620117
-0.0006070388481020927
-76.75905609130859
9.67249870300293
-12.47718048095703
-55.08838272094727
-15.5803108215332
-19.47659873962402
-32.19082641601562
-17.67082595825195
-14.22884368896484
-6.848429679870605
-73.19561004638672
-16.42592620849609
-47.17740249633789
-13.2087459564209
20.60733032226562
7.653267860412598
11.42885971069336
1.155910491943359
9.327722549438477
0.2059808373451233
-101.2118988037109
26.47462844848633
0.4086704254150391
-53.20143890380859
21.35188865661621
14.7775239944458
-11.91727828979492
24.44940567016602
-4.075256824493408
24.40076446533203
24.53134918212891
24.37576293945312
8.48725700378418
23.86891174316406
-74.85114288330078
-1.535765409469604
-18.94973945617676
-20.55888366699219
-0.08184468746185303
-98.86039733886719
10.65828323364258
-63.82373809814453
-7.629242420196533
-2.789622068405151
11.69726657867432
8.479297637939453
5.292668342590332
2.573923826217651
-5.157170295715332
-8.382148742675781
53.25920867919922
-8.769754409790039
-7.410080909729004
31.01083755493164
27.12344741821289
-8.386837959289551
-4.072730541229248
60.35305023193359
16.07395935058594
-12.55318832397461
1.175526142120361
-1.336825370788574
-4.626998424530029
-52.83152008056641
-31.40175819396973
2.230098962783813
-0.2111356854438782
14.2075777053833
-6.821088790893555
-6.846871376037598
-2.542152643203735
1.246906280517578
101.1314468383789
8.469381332397461
4.611196517944336
7.619748115539551
-0.2667982578277588
4.458644866943359
-19.53203201293945
4.611111640930176
-31.00282287597656
73.05976867675781
-0.8992137908935547
19.51981735229492
-60.43872451782227
68.65692138671875
-13.4422435760498
-63.79626083374023
-19.10289764404297
-11.39908981323242
-4.693130493164062
28.23137664794922
-68.59458923339844
60.51971054077148
-33.65869140625
65.84547424316406
0.9346945285797119
2.236809492111206
-20.90710639953613
4.629604816436768
-12.07899856567383
-19.93325424194336
-19.7057991027832
16.49443817138672
52.79670333862305
13.44088554382324
89.17500305175781
-18.94507026672363
-21.12664031982422
6.92025899887085
-1.160162091255188
-52.80758285522461
-13.84201240539551
-65.08733367919922
13.19105243682861
-2.231645822525024
33.71942520141602
-2.988420009613037
0.08246976137161255
-1.386267185211182
-14.76787757873535
40.61786270141602
27.15085029602051
-37.54674911499023
14.25378608703613
-0.8697719573974609
8.441943168640137
-24.36799240112305
-7.356922149658203
17.37883758544922
24.48627853393555
-24.414794921875
12.051513671875
17.3497142791748
59.93480682373047
-1.55094850063324
19.60737228393555
-9.132981300354004
-13.72279644012451
20.29209899902344
-2.546522617340088
-0.0001333879336016253
-8.054377555847168
2.544908285140991
18.78952789306641
6.884378910064697
74.45881652832031
19.80690956115723
9.310074806213379
14.44513511657715
-0.002596707083284855
13.437424659729
-2.977156400680542
10.12409591674805
72.94178771972656
-6.805111885070801
-14.15778923034668
132.8858642578125
-11.69421482086182
-7.615280151367188
-5.181806087493896
28.34198570251465
-6.847086429595947
16.10732078552246
38.70722198486328
29.31612014770508
57.56478500366211
-14.54843521118164
94.75386810302734
-18.81801605224609
33.66813278198242
-0.9637099504470825
-6.837759017944336
-1.163901090621948
6.858455657958984
71.30284881591797
-9.667356491088867
-18.22576141357422
20.95247840881348
15.45564842224121
-15.35332107543945
-0.2670929431915283
8.305624961853027
13.72498416900635
-24.4713249206543
101.1550598144531
21.65462112426758
-2.041686534881592
-13.81471061706543
76.82515716552734
-2.570226907730103
3.347461223602295
25.11466979980469
49.6402587890625
53.23290634155273
3.294277191162109
4.49720573425293
-98.91720581054688
1.175008893013
1.34999490910559e-05
-20.72505950927734
66.06318664550781
-13.72567749023438
0.0001644517760723829
26.94905853271484
-60.11772155761719
0.4437713623046875
-6.790242195129395
8.359409332275391
0.6624195575714111
0.6948080658912659
55.37546157836914
3.212490081787109
0.7308635711669922
0.1999000310897827
11.26410579681396
4.586968421936035
-3.15101432800293
-1.186020731925964
8.382707595825195
-40.7546272277832
-40.62073516845703
19.33684539794922
-28.24105072021484
9.661771774291992
-13.72166728973389
9.825857162475586
98.00809478759766
-20.59972381591797
-0.1724624633789062
16.29068374633789
24.2916431427002
-10.05429077148438
-8.415651321411133
-28.25265312194824
2.596225738525391
11.7031831741333
77.24077606201172
13.7108211517334
9.872589111328125
-12.30086517333984
-26.48482704162598
-6.567937850952148
-26.51979446411133
-98.96034240722656
5.286117553710938
-20.74745559692383
1.374931812286377
61.30088043212891
66.03366088867188
-19.19404220581055
-1.193903207778931
14.88377952575684
7.622778415679932
19.52340888977051
-55.08309173583984
23.87495803833008
2.560797691345215
18.93997955322266
-8.409337997436523
-11.4253511428833
12.0780086517334
-5.633353233337402
1.394794464111328
-52.86989212036133
-56.88125991821289
-6.861610412597656
19.42185592651367
-40.30607604980469
55.06886291503906
-3.20629358291626
-21.44122314453125
14.18286323547363
-19.3092098236084
-98.06202697753906
19.44758033752441
4.684146404266357
-6.976974487304688
19.2706241607666
-31.43452835083008
-28.23514938354492
-8.295729637145996
11.57888412475586
27.06716918945312
-11.87162780761719
-4.842727661132812
63.80716323852539
8.846202850341797
-1.172858953475952
21.85512924194336
18.87113952636719
-71.86522674560547
-12.16121864318848
14.95366096496582
-4.620205879211426
-19.72234344482422
-3.288176536560059
-16.30310440063477
50.51252746582031
29.6540412902832
-20.45846557617188
-12.01047134399414
-13.16593551635742
-40.41426086425781
28.37012100219727
-14.24625396728516
10.19546222686768
-65.98300933837891
37.61643981933594
18.73796081542969
12.28952693939209
-31.39427185058594
8.185360908508301
1.561653852462769
52.85936737060547
-38.70383453369141
-6.351733684539795
-53.24110412597656
68.57639312744141
80.30184173583984
1.170770406723022
10.0566463470459
-41.11917495727539
12.34083843231201
-94.78049468994141
132.9790344238281
3.29900598526001
-2.298427581787109
-16.27750778198242
-0.4922465085983276
-74.77236175537109
-29.6816520690918
26.99773025512695
-4.850540637969971
-45.9666748046875
52.56500244140625
20.38573837280273
0.4641324281692505
3.527826309204102
74.33743286132812
12.39803695678711
3.469985723495483
0.001336443587206304
-12.48331546783447
-49.59426879882812
25.01588821411133
11.57932090759277
-10.81371307373047
-89.18325805664062
-1.157201766967773
-0.2064678072929382
-7.577339172363281
-16.16186714172363
-14.19326305389404
-12.65922451019287
6.368843078613281
-14.85581207275391
2.803525924682617
18.81671333312988
11.30220985412598
9.697929382324219
-19.5329704284668
98.91022491455078
37.5294075012207
-40.59923934936523
4.546168327331543
-20.98605346679688
-27.03437042236328
-3.209327697753906
-40.78742218017578
-8.432741165161133
-8.376355171203613
-0.4224872589111328
-1.888508319854736
14.71178340911865
-4.502001285552979
-13.72347259521484
19.61865234375
83.06069946289062
60.51948165893555
-63.85943222045898
-3.401199340820312
-3.288295269012451
-73.06899261474609
-16.06772232055664
-8.402378082275391
-4.670783042907715
-16.16220474243164
-6.734580039978027
7.691960334777832
4.555198192596436
14.36764144897461
-127.423210144043
2.264616012573242
-60.36269378662109
-5.00444507598877
1.174081802368164
5.291075706481934
-16.12796783447266
71.18392944335938
-8.244867324829102
-15.98910808563232
77.00422668457031
1.068871259689331
0.0008947497699409723
-11.36611175537109
1.169325113296509
4.739668846130371
2.033105373382568
-11.42902946472168
11.96600723266602
-0.3904352188110352
-4.977851867675781
2.483781814575195
21.19430923461914
13.207839012146
4.501160144805908
0.9565595388412476
8.37236213684082
-11.54956912994385
2.780911445617676
-16.12068748474121
-10.24567604064941
-19.66017723083496
-8.383454322814941
0.6681157350540161
-0.6253948211669922
2.547243356704712
13.20853137969971
8.109952926635742
-20.24060440063477
-41.15567779541016
-4.588125228881836
-17.53790283203125
9.083572387695312
-34.00777435302734
65.88055419921875
12.50078392028809
-57.58732604980469
15.51070594787598
31.38452911376953
-12.05604076385498
117.6577758789062
16.00975799560547
0.4609852135181427
19.76687240600586
-5.591588973999023
94.69541931152344
-11.88563346862793
8.307412147521973
-19.2954044342041
-1.887459278106689
0.0004437912721186876
-18.7967414855957
-12.07652473449707
-2.22491455078125
8.326620101928711
11.93630599975586
-49.61354446411133
5.187186717987061
10.8404712677002
-17.84598541259766
2.831984519958496
-52.77804183959961
-55.40826034545898
-76.88868713378906
-20.39978408813477
41.07742691040039
-8.98429012298584
47.23902893066406
-18.83770370483398
-0.9433090686798096
-19.18441963195801
-0.3976650238037109
68.69313812255859
-56.85797500610352
-0.002057535108178854
71.85953521728516
0.491055965423584
52.85049438476562
2.444741249084473
32.85713577270508
-51.82875061035156
-39.51337814331055
-0.6602612733840942
-14.91181755065918
45.65247344970703
-52.61826705932617
-15.97886085510254
21.72490882873535
-4.62956714630127
0.466860294342041
2.993416547775269
-10.24948883056641
55.38235855102539
-1.539936780929565
-3.380207061767578
-54.92358016967773
-9.274862289428711
-55.35609817504883
-29.98216247558594
-47.43661880493164
77.30804443359375
4.950923919677734
-10.59687519073486
16.40249824523926
-0.3674939572811127
-6.983071327209473
11.6683235168457
32.38217544555664
-98.02116394042969
-5.150254249572754
11.95845794677734
-32.75303268432617
1.880777359008789
1.550220966339111
5.182515621185303
14.85932636260986
37.60251235961914
-8.338824272155762
-11.31326866149902
2.047073364257812
9.87470817565918
-19.51387405395508
55.38723754882812
0.0001585626159794629
24.43503570556641
7.724822998046875
-40.61240768432617
-0.6731473207473755
11.64202880859375
-31.36600494384766
0.08293789625167847
-13.84579277038574
-71.98976898193359
12.2935733795166
0.2344372272491455
14.49508476257324
-29.71656608581543
52.68788909912109
11.66998672485352
-8.38089656829834
-6.817849636077881
6.761260509490967
-10.65193748474121
9.725983619689941
6.823619365692139
-20.30367660522461
12.0576171875
-10.40842056274414
52.59512710571289
-16.67587471008301
28.23816680908203
-21.84699440002441
16.12574005126953
8.205997467041016
-28.33143997192383
-19.52965354919434
0.0004167946754023433
51.87021255493164
-0.2659738063812256
3.276373624801636
-83.0906982421875
-13.14231491088867
2.280875205993652
9.248311042785645
2.48237681388855
32.83774566650391
-68.647216796875
-12.82320785522461
72.98969268798828
-73.1171875
8.704127311706543
21.45557022094727
-55.36040878295898
-14.88331127166748
-13.2109317779541
4.670297622680664
14.77575397491455
-9.617250442504883
0.9597773551940918
2.803946018218994
13.45039367675781
20.78856086730957
7.586414337158203
-0.6149630546569824
1.565046310424805
3.442384719848633
10.40744590759277
19.54949951171875
3.198362827301025
21.77239418029785
9.738811492919922
11.69834232330322
98.84623718261719
0.6074037551879883
-0.9317803382873535
11.37352752685547
-0.490678071975708
11.40927219390869
-7.588541984558105
-5.176879405975342
12.13277244567871
-16.44718933105469
19.48442077636719
9.656703948974609
-76.71364593505859
-16.64739036560059
26.20607376098633
-23.87754058837891
-50.5120964050293
2.579886198043823
-18.9411506652832
-3.465091943740845
1.210178375244141
10.588547706604
0.9307780265808105
-41.13422393798828
40.62246704101562
38.8697509765625
-19.63656616210938
-18.57529449462891
11.88071441650391
8.145882606506348
-26.85687637329102
9.302737236022949
-3.450854301452637
-49.68006896972656
-47.15381622314453
11.37912368774414
-21.42468643188477
0.6691479682922363
2.045076370239258
6.872596740722656
-11.89843559265137
3.604648590087891
-66.037353515625
-15.30153846740723
-9.28514289855957
-2.466527938842773
-5.292207717895508
74.87752532958984
-21.34856414794922
5.191391468048096
2.781228065490723
41.16438293457031
-14.19813919067383
-19.40175437927246
-7.669442653656006
13.56438636779785
2.265118598937988
-7.628800868988037
-32.45810317993164
-2.780655860900879
-12.093092918396
-19.69435882568359
32.767822265625
6.946731567382812
-0.3679105043411255
-14.74381732940674
14.15044212341309
12.48104190826416
6.782364845275879
25.09640121459961
8.485915184020996
-9.323983192443848
-24.32265472412109
-0.08485561609268188
20.29481506347656
-4.570042610168457
36.78073501586914
8.411689758300781
-60.49765396118164
33.72293090820312
-8.992292404174805
-10.05753135681152
36.71440124511719
12.17733383178711
11.56982612609863
-61.27202606201172
-80.27302551269531
-52.58878326416016
-94.636474609375
15.45267581939697
14.82780075073242
-1.549630165100098
-11.69344043731689
0.000262450601439923
-19.47391891479492
21.41895484924316
3.312587738037109
12.43810653686523
-59.93563461303711
0.8434829711914062
18.16756057739258
-1.125024795532227
19.26615905761719
-19.3182487487793
101.1691131591797
-1.081689834594727
29.87104415893555
3.192726135253906
0.9658562541007996
-3.455764770507812
-38.63511276245117
-26.15192794799805
57.54909896850586
9.599332809448242
8.378328323364258
28.25700759887695
-0.4993870258331299
4.670428276062012
-27.03623962402344
0.2087790369987488
-5.115999221801758
-6.251243591308594
-3.268307685852051
-14.97145462036133
8.439026832580566
-19.77932167053223
-1.410373687744141
20.971435546875
-29.97319030761719
4.821396350860596
3.474628448486328
4.041016101837158
6.785628318786621
20.73463821411133
10.05751800537109
4.177089691162109
19.5513744354248
52.90298461914062
-0.5955891609191895
-8.439369201660156
5.623932838439941
-65.05644226074219
38.66972732543945
2.29411792755127
-16.37156867980957
-36.69569396972656
2.544536590576172
-0.0004101100494153798
-36.83280944824219
10.14494895935059
15.45641136169434
-36.72392654418945
-55.25051879882812
-12.23321533203125
1.204206466674805
6.483034133911133
-36.8194580078125
-8.384620666503906
-61.30404663085938
-20.93229293823242
-6.729365348815918
-8.99034309387207
7.643039226531982
24.43633651733398
-56.87736892700195
4.482339382171631
-77.24020385742188
19.14664649963379
-47.20114135742188
6.827755451202393
4.590706825256348
6.827620506286621
77.19849395751953
49.66291046142578
-14.63077354431152
-14.87255477905273
-0.2675755321979523
13.79529285430908
-94.65599822998047
-13.19338607788086
18.79359245300293
3.436397552490234
4.664100646972656
8.713054656982422
11.2480001449585
-52.83375549316406
8.342127799987793
20.92336654663086
29.41053199768066
0.1632986068725586
-27.14885902404785
-17.44065475463867
-1.879934310913086
0.2703869342803955
-8.307755470275879
-11.53383731842041
52.77834701538086
-9.858072280883789
-20.9862117767334
26.82273101806641
0.1468420028686523
-8.32841682434082
-8.509821891784668
-6.243146896362305
-51.98013687133789
-21.31118583679199
34.03799438476562
-60.32595825195312
0.4241337776184082
4.047022819519043
-18.06818008422852
-2.246191024780273
12.80193710327148
5.635684013366699
6.415678977966309
4.642895698547363
16.4222526550293
61.28411102294922
16.12216186523438
-66.01877593994141
-47.39908599853516
-2.483328580856323
45.98067474365234
14.42473220825195
-1.390470027923584
8.04448127746582
24.37232780456543
-74.51878356933594
-1.502218246459961
24.52636337280273
-60.08143615722656
-8.309021949768066
71.60016632080078
-117.7088088989258
16.15784454345703
-19.2550048828125
14.57472991943359
-2.04126501083374
-4.551656723022461
-74.40282440185547
-0.0008210267405956984
19.17359924316406
0.9601651430130005
-71.30817413330078
9.638980865478516
1.165079116821289
-20.64441299438477
-71.13745880126953
-1.5660080909729
83.05486297607422
17.34275245666504
0.1576414108276367
-8.804211392998695e-05
1.376800894737244
-1.544330596923828
-11.95831489562988
-34.01535034179688
0.9268245697021484
-24.36874771118164
-2.304134368896484
-12.03301620483398
-0.3592216968536377
-3.327362060546875
-14.56346607208252
-11.89067840576172
40.62025833129883
40.7750358581543
-57.5777587890625
1.549998879432678
19.4946174621582
-7.682781219482422
-21.13839149475098
-7.626819610595703
0.271491527557373
-1.13170051574707
12.28730201721191
-2.792748928070068
-74.44374847412109
-24.23424530029297
-1.170361399650574
1.556866645812988
5.568487167358398
-40.64612197875977
8.307181358337402
-23.86273574829102
-2.482767581939697
-24.25344467163086
60.0782585144043
-14.66187286376953
14.77897834777832
40.3375244140625
-0.1971354484558105
-6.260881423950195