# vtk DataFile Version 2.0
created with he
ASCII
DATASET POLYDATA
POINTS 2562 double
0.660203754901886 0.6287594437599182 0.2251558005809784
-0.8019001483917236 0.5674297213554382 -0.1023215129971504
-0.8028803467750549 0.2819827497005463 -0.2806353271007538
-0.3827433884143829 -0.7906801700592041 -0.2589848935604095
-0.159085676074028 -0.6617801189422607 0.3274720311164856
0.3014070689678192 0.1212750226259232 -0.1920217722654343
-0.3650259971618652 -0.7007004618644714 -0.3125663995742798
-0.2464356869459152 -0.4615935385227203 -0.2860492169857025
-0.6368095278739929 -0.6880217790603638 -0.1913973689079285
0.1963697671890259 -0.6994662284851074 -0.3268857002258301
-0.06575649231672287 0.7168420553207397 -0.3274340629577637
-0.5805520415306091 -0.173409178853035 0.3146612644195557
0.05079078301787376 0.08989512920379639 -0.1136004626750946
0.5336844325065613 0.6859433650970459 -0.2669223546981812
-0.7769619822502136 -0.6295475363731384 4.082556552020833e-05
-0.5529727339744568 -0.62556391954422 -0.2910328209400177
0.1708752363920212 -0.5293455719947815 -0.2988887131214142
0.153205543756485 0.03020868264138699 -0.1261160373687744
-0.6592332124710083 -0.3431813418865204 0.3247614204883575
-0.9921306967735291 -6.145781412669749e-07 0.0682746097445488
0.8858779668807983 0.4595849514007568 -0.03441406786441803
-0.4991190433502197 0.4457137882709503 -0.3265255689620972
0.4312064647674561 -0.8828059434890747 -0.1019290313124657
0.5439295768737793 -0.826965868473053 -0.07769753038883209
0.286270946264267 -0.4935629367828369 -0.3039259612560272
-0.107769750058651 -0.85318523645401 0.27409827709198
0.2202261090278625 0.3776691555976868 -0.2468528896570206
-0.2068010121583939 0.4299260675907135 -0.2657825946807861
-0.2202124446630478 -0.3776360154151917 0.2468356639146805
-0.03387847542762756 -0.7632744908332825 0.3205325305461884
0.7684794068336487 -0.04584025964140892 0.3190190196037292
0.4015292823314667 0.06063292920589447 -0.2316125184297562
0.2309335470199585 -0.3235026597976685 -0.2273643463850021
-0.6840572357177734 0.7199755907058716 -0.06380289047956467
0.5716149210929871 0.292810469865799 0.3227746784687042
0.5336955785751343 -0.6859462857246399 -0.2669149041175842
-0.8553897142410278 0.3022766709327698 0.2302751243114471
0.4492625296115875 0.6210966110229492 0.3198944926261902
-0.1361161321401596 0.3177409470081329 0.2019597440958023
0.3277794420719147 -0.327782541513443 -0.2594752609729767
0.4479192793369293 -0.7681576609611511 -0.2490393370389938
-0.8040294051170349 0.348936140537262 -0.2607058882713318
-0.8554086089134216 0.3022742569446564 -0.2302560657262802
-0.5854196548461914 0.5032820105552673 0.31841641664505
-0.4078726768493652 0.5892717838287354 0.3276385068893433
-0.2739382088184357 0.3538291156291962 0.2518230080604553
-0.6840479373931885 0.7199661135673523 0.06386434286832809
0.8018836379051208 -0.5674242377281189 0.1023697480559349
-0.2916893064975739 -0.239960566163063 -0.2176136523485184
0.7509500980377197 -0.6130940914154053 -0.1346413940191269
-0.2067839801311493 0.4298977553844452 0.2657673954963684
0.8967776298522949 -0.2492163330316544 0.2009949833154678
-0.9254136085510254 -0.3284759223461151 -0.1034000590443611
-0.2455755770206451 -0.2098225951194763 -0.1911319196224213
-0.03910520672798157 -0.9933426380157471 0.05904130637645721
-0.1787039488554001 0.8434759974479675 -0.2723952829837799
-0.4604653418064117 -0.8450731039047241 0.1492835581302643
-0.2309510707855225 0.3235044181346893 -0.2273700833320618
-0.08035473525524139 0.5061975717544556 0.2815515100955963
0.2848177552223206 -0.6323838233947754 -0.3280375301837921
-0.7377268671989441 -0.5286064743995667 0.2299019247293472
-0.9618231654167175 0.19883131980896 0.1028853952884674
-0.5397116541862488 0.08804026246070862 0.2953981459140778
-0.9907687902450562 0.1355624794960022 3.644593380158767e-05
-0.06575290858745575 0.7168328762054443 0.3274347186088562
0.07831291109323502 -0.9969288110733032 6.633580051129684e-05
-0.2079355418682098 -0.5636131763458252 0.3132582306861877
0.4846015572547913 -0.2388554662466049 -0.2928726673126221
0.6089370846748352 -0.7419431805610657 -0.1542004495859146
0.2206177413463593 0.8862024545669556 0.2233438193798065
0.5760752558708191 0.7190216183662415 -0.2134598791599274
-0.1871868073940277 0.2934499979019165 0.2031206786632538
0.6246994733810425 0.02747312374413013 -0.3193989396095276
-0.7509309649467468 -0.6130723357200623 0.1347041130065918
-0.02665427513420582 -0.5118520855903625 0.2815557420253754
0.4285594522953033 -0.6781953573226929 0.3077481091022491
-0.4496480524539948 -0.03013549745082855 0.2533476650714874
0.977286159992218 0.2023502886295319 -0.03425958007574081
-0.1158457025885582 0.4169427752494812 -0.2446893006563187
-0.1502046436071396 -0.1496719121932983 -0.1441327184438705
-0.6248124837875366 -0.08293817192316055 0.3204696774482727
0.4062072932720184 -0.734556257724762 0.2882929742336273
-0.02665671892464161 0.5118473172187805 0.2815537750720978
-0.459990531206131 -0.8835833072662354 -0.04773995652794838
-0.1532054990530014 -0.03020933270454407 0.1261160522699356
0.2455610334873199 -0.2098422050476074 -0.1911327093839645
-0.09560491144657135 -0.6705508828163147 -0.3272415697574615
0.1275203675031662 0.36881023645401 -0.2237906903028488
-5.56154645892093e-06 0.4755688011646271 -0.2650857865810394
-0.0348290279507637 0.4032637178897858 -0.2309632748365402
-0.9081514477729797 0.06070417538285255 0.2269243597984314
-0.2500579059123993 -0.150865375995636 0.1768549680709839
-0.1903828233480453 0.4803837835788727 -0.2833295464515686
-0.7083545327186584 -0.1822444200515747 -0.3263732492923737
0.6658788323402405 -0.2208061516284943 0.3281095325946808
0.4847407341003418 0.5048077702522278 0.32811239361763
-0.9598210453987122 0.130786806344986 0.1362711936235428
-0.1928664445877075 0.9754310250282288 0.05801113694906235
0.1537498980760574 -0.9647882580757141 0.1169273927807808
-0.4680797457695007 0.3578599095344543 -0.3099056780338287
1.007036098599201e-05 -0.2870835363864899 0.1746364682912827
-0.0446951687335968 0.3131595253944397 -0.187998503446579
-0.03601577505469322 -0.8581519722938538 0.2748927772045135
0.04716337472200394 0.2611711025238037 0.1651967763900757
0.6436569094657898 0.7632733583450317 0.03037870489060879
0.961832582950592 -0.1988373547792435 0.1028553619980812
0.0869498997926712 -0.3402360379695892 -0.20462466776371
0.1361094862222672 0.3177201151847839 0.2019492238759995
0.847200334072113 -0.5161290168762207 -0.06868010014295578
0.5716232657432556 0.2928262948989868 -0.3227772414684296
-0.07831145823001862 -0.9969289302825928 7.244165317388251e-05
0.142429530620575 -0.2639054954051971 0.1804048866033554
0.5805624127388 0.1734208613634109 -0.3146648108959198
-0.3004929423332214 -0.7204090356826782 0.315835177898407
0.08697386831045151 -0.3402096331119537 0.2046151459217072
-0.05079471692442894 -0.08989386260509491 0.1136006191372871
0.7522902488708496 -0.3925515711307526 -0.2822971045970917
0.02963712625205517 0.5911859273910522 -0.3107220232486725
0.3811640739440918 -0.2997093200683594 0.2693571746349335
0.036021638661623 -0.8581470847129822 0.2748962640762329
-0.7084314227104187 0.3040813207626343 -0.3187193274497986
0.8471938967704773 0.5161223411560059 0.06871913373470306
-0.3163402378559113 -0.8114362359046936 0.2654271125793457
0.7084015607833862 -0.3040809333324432 0.3187269866466522
0.9800834655761719 0.06652086228132248 0.1023682281374931
0.1009294167160988 -0.1197544187307358 -0.1262446641921997
0.1139737516641617 0.9416221976280212 -0.1742557883262634
-0.6592451333999634 0.3431839942932129 -0.3247595429420471
-0.353649765253067 -0.03039734065532684 -0.2064637541770935
0.1531991064548492 -0.0301949568092823 -0.1261135190725327
-0.03188265115022659 0.674974262714386 0.3271171450614929
-0.05006787925958633 0.1488028317689896 -0.1263533681631088
-0.6248412132263184 -0.08294606953859329 -0.320475846529007
-0.1009360924363136 -0.1197630688548088 0.1262477189302444
-0.3045132458209991 1.576090835442301e-05 -0.1825211495161057
-0.6201382875442505 -0.2576406598091125 0.3267538547515869
0.5397226214408875 -0.08804084360599518 0.2954022884368896
-0.1469919681549072 -0.2077267169952393 0.16061931848526
-0.570421040058136 -0.5647305250167847 -0.3075650036334991
-0.8858751654624939 0.4595774114131927 0.03446521610021591
-0.8352856636047363 2.676793883438222e-06 0.2908188700675964
0.4847411513328552 -0.5048075318336487 0.32811239361763
0.4911809861660004 0.6531665325164795 0.3007910549640656
-0.5336976647377014 0.6859359741210938 -0.2669204771518707
0.0391075499355793 -0.9933688044548035 -0.05890917778015137
-0.2206382751464844 -0.8862584829330444 -0.223273754119873
0.6840543150901794 -0.7199804782867432 -0.0637957975268364
0.6840453743934631 -0.7199673652648926 0.06386834383010864
-0.4911738038063049 -0.6531580090522766 0.3007966279983521
-0.3467721343040466 -0.6123920679092407 -0.3280908763408661
-0.359026163816452 -0.8477917909622192 -0.2142855226993561
0.798183798789978 0.217371329665184 -0.2954815924167633
0.8565619587898254 -0.05621804296970367 0.2752676904201508
0.688537061214447 -0.4978525042533875 -0.2815284729003906
0.885876476764679 -0.4595848023891449 -0.0344259962439537
0.2222145795822144 0.6489755511283875 -0.3277711272239685
-0.2309224754571915 -0.3234660923480988 0.2273464798927307
-0.1484197676181793 -0.5771058201789856 0.3118805885314941
0.2455771118402481 0.2098340392112732 0.1911359876394272
-0.06576433777809143 -0.7168341875076294 -0.3274345695972443
0.896170973777771 0.3176611661911011 0.1703877598047256
-0.7052793502807617 -0.1252362877130508 0.3276584446430206
0.776960015296936 0.6295499205589294 3.160625419695862e-05
0.2662876844406128 0.9582430720329285 -0.05677539110183716
-0.1885358840227127 0.9305449724197388 -0.1726652383804321
-0.5272911190986633 -0.5346221923828125 -0.3234089016914368
0.4015520215034485 -0.06062424182891846 0.2316229641437531
0.8382011651992798 -0.1691015660762787 -0.2777018845081329
[...]
POINT_DATA 2562
SCALARS fx double 1
LOOKUP_TABLE default
0.6479568481445312
0.1203396320343018
-0.08956670761108398
-0.1724271774291992
0.0591595433652401
0.08617067337036133
0.001732587814331055
0.004044331610202789
0.2843271195888519
-0.05334822088479996
0.02017144113779068
0.09950113296508789
0.06162476539611816
0.3848615884780884
-0.3149852752685547
0.1194164752960205
-0.01593124866485596
0.1426133513450623
0.1835677623748779
-0.108087420463562
0.289644718170166
0.1780475676059723
-0.03800418972969055
0.1642451286315918
-0.02777925133705139
-0.07939703762531281
0.01694315671920776
-0.005419015884399414
-0.01752623915672302
0.001753108925186098
-0.06966185569763184
0.06113845109939575
0.03080174326896667
-0.09959626197814941
-0.16057288646698
0.382455587387085
-0.8792757987976074
-0.05409145355224609
-0.02200299501419067
0.03231659531593323
0.406160831451416
-1.090975761413574
-0.877387523651123
0.08769142627716064
0.1346627622842789
-0.02535889483988285
-0.09970064461231232
-0.1208938807249069
-0.05676833167672157
-0.2331411838531494
-0.006072528660297394
-0.4326398372650146
0.1429150104522705
-0.0685293972492218
-0.007844299077987671
-0.1227285265922546
0.2158846855163574
-0.03074067831039429
0.004841126501560211
-0.1026852279901505
-0.7960343360900879
0.1393585205078125
0.02224567532539368
-0.4007830619812012
0.02005899138748646
0.03915750980377197
0.0394657701253891
-0.0004650354385375977
-0.3122439384460449
0.06668645143508911
0.242539644241333
-0.0359075665473938
-0.1389380693435669
0.2325336933135986
0.00238881423138082
0.01911330223083496
-0.04266607761383057
0.3104915618896484
-0.003499150276184082
-0.09290416538715363
0.1430599689483643
-0.1034444570541382
0.002514992840588093
-0.1797952651977539
-0.1426003277301788
0.06841492652893066
0.03493592143058777
0.0096435546875
4.069041460752487e-05
0.006906416267156601
-0.8138694763183594
-0.08941022306680679
0.003744140267372131
0.1860232651233673
-0.2264899164438248
-0.1816582232713699
0.2840790748596191
-0.04097051918506622
-0.04364421963691711
0.05494382977485657
2.758204936981201e-05
-0.008592660538852215
-0.02717860043048859
0.01645864546298981
0.1946320533752441
-0.1394195556640625
0.01088573597371578
0.02210000157356262
0.09391240775585175
-0.1615225523710251
-0.03918865323066711
0.03947558999061584
-0.0998532772064209
0.00140872597694397
0.010822594165802
-0.06184038519859314
0.1064560413360596
-0.00536657776683569
0.03191182017326355
0.02719909697771072
0.1287686824798584
0.09448932111263275
-0.1652751564979553
-0.1291946321725845
-0.1343678832054138
0.09170171618461609
-0.08817077428102493
0.1845643520355225
-0.07803261280059814
0.1423707902431488
0.01265384163707495
-0.04418309032917023
0.142926037311554
-0.09130793809890747
-0.09780266880989075
0.2130129635334015
-0.0255054235458374
-0.06352898478507996
0.002869844436645508
-0.2897097766399384
0.3826610743999481
-0.1814285516738892
-0.04983294010162354
-0.3837149143218994
0.007917225360870361
-0.06631627678871155
0.1006691455841064
0.0998399555683136
0.04863762855529785
0.121176190674305
-0.1073389053344727
-0.2955281436443329
0.01369667053222656
0.09539711475372314
0.2895457744598389
-0.08039160072803497
-0.03041011095046997
0.02714462578296661
0.06835758686065674
0.01956279948353767
-0.7800434231758118
0.1785733699798584
0.3146223425865173
0.06036591529846191
0.1395947337150574
0.1163139417767525
0.06073886156082153
0.05145812034606934
0.2135694026947021
-0.05576428771018982
-0.05552083253860474
0.06174749135971069
-0.003784820437431335
-0.039116520434618
-0.01696407236158848
0.3680298328399658
0.05503201484680176
0.435640811920166
-0.06889723986387253
-0.2305112183094025
-0.09563684463500977
-0.02507799863815308
-0.2438393831253052
0.04193907603621483
-0.003977507352828979
-0.007943094708025455
0.01831658184528351
-0.006804138422012329
-0.08912169933319092
2.289563417434692e-05
-0.2303297519683838
0.006112433969974518
0.003726132214069366
0.2965802550315857
-0.01494610495865345
0.02530452609062195
-0.09870368242263794
0.01086163520812988
0.8787575960159302
-0.9275749921798706
0.0598597526550293
-0.1204860210418701
-0.5725693702697754
0.02785986661911011
-0.06626003980636597
-0.2234919667243958
0.03940585255622864
-0.1663778424263
0.08947122097015381
0.002898875623941422
-0.3114141523838043
-0.00213855504989624
-0.153534933924675
0.2308465838432312
-0.1017793715000153
0.03246325254440308
-0.07806909084320068
-0.07916241884231567
0.004731133580207825
-0.08058345317840576
-0.08037891983985901
-0.08104628324508667
-0.07352547347545624
0.1999054253101349
0.06764614582061768
0.1507224440574646
-0.1801341772079468
0.1864004731178284
-0.01224360242486
-0.3102717399597168
0.09147801995277405
-0.754183292388916
0.005941696465015411
0.1651637256145477
0.01415690779685974
-0.07385417819023132
0.04408100247383118
0.1544462144374847
-0.03965109586715698
-0.06802231073379517
-0.2286199331283569
0.1582688689231873
0.03946017473936081
0.2156258672475815
-0.166668176651001
0.01639914512634277
0.004731588065624237
-0.4729154109954834
-0.01299819350242615
0.1433910578489304
-0.005417499225586653
0.002509712241590023
0.05382474139332771
-0.2855451107025146
-0.1101640462875366
0.00784551165997982
-0.002930935472249985
-0.1362136006355286
0.005324900150299072
-0.009420186281204224
0.02412453107535839
0.1033536195755005
0.3115501403808594
0.03087989985942841
0.009756699204444885
-0.00548863410949707
-0.03502115979790688
0.9712623357772827
-0.1399548053741455
-0.05333787202835083
-0.2152940630912781
-0.06428861618041992
-0.213189423084259
-0.005127778276801109
0.4718592166900635
0.4157950878143311
-0.1227690577507019
-0.7542378902435303
0.1013408303260803
-0.03836894035339355
0.4071360230445862
0.1968977451324463
-0.4133672714233398
-0.4726708829402924
0.001918066293001175
-0.05012381076812744
-0.2267005741596222
0.00785552617162466
-0.01392906904220581
-0.05375966429710388
-0.07626897096633911
0.8101449012756348
0.8136382102966309
0.1205329895019531
0.6921792030334473
0.122811496257782
0.2893853187561035
-0.1793810725212097
-0.03602537512779236
-0.09875412285327911
-0.2143671810626984
-0.6912165880203247
0.068968266248703
-0.7247499823570251
-0.006085425615310669
-0.007843137718737125
-0.001754641532897949
-0.01085209846496582
0.01267373189330101
-0.004031762480735779
0.1017246842384338
0.182702898979187
-0.02515792846679688
-0.1788077354431152
-0.1357173770666122
-0.2131302207708359
-0.4318511486053467
0.0006451606750488281
0.03919007629156113
-0.8490526676177979
0.01623041555285454
0.04080861806869507
0.0839691162109375
-0.84767746925354
-0.03298647701740265
0.152586042881012
0.04228357598185539
-0.01779243350028992
-0.1397980451583862
0.04233523830771446
0.02419024333357811
-1.510977745056152e-05
-0.04804141074419022
-0.02440235018730164
0.1388609558343887
-0.0999472439289093
-0.09334707260131836
-0.8118648529052734
0.08935996145009995
-0.6496731042861938
-5.707144737243652e-05
0.1229706406593323
-0.01078105065971613
0.05646967887878418
-0.05974483489990234
0.1607677340507507
0.8785178661346436
-0.3695623576641083
-0.01392359286546707
0.005390286445617676
0.1345160305500031
0.1057863235473633
0.005145996809005737
-0.009021759033203125
-0.1634475439786911
-0.117171972990036
0.7629430294036865
0.06127274036407471
0.304548978805542
-0.1384716033935547
-0.001649130135774612
0.1216956377029419
-0.009351775050163269
-0.2140366584062576
-0.00497455894947052
0.1948223114013672
0.003315486013889313
-0.03299218416213989
0.01407754421234131
0.01426464132964611
0.004949122667312622
-0.03502967953681946
0.08805552124977112
0.1398395597934723
0.07910791039466858
0.3148630857467651
0.02350157499313354
-0.01643124222755432
0.06950651109218597
0.230980709195137
-0.1547541171312332
-0.05932950973510742
0.08920717239379883
0.2904840111732483
-0.2295754551887512
0.001799941062927246
0.03960219025611877
-0.3103005886077881
0.2326708436012268
-9.5367431640625e-07
0.06637862324714661
-0.05135276913642883
-0.04704251140356064
7.540687511209399e-05
-0.02392598986625671
0.03549420833587646
0.1780117452144623
-0.06351158022880554
-0.07339587807655334
0.08071033656597137
0.07924969494342804
0.2821425199508667
0.02837437391281128
0.09265792369842529
0.002885986119508743
0.06413644552230835
-0.007014267146587372
-0.1821434050798416
-0.2335244119167328
-0.01563131809234619
-0.3118717670440674
-0.1820459812879562
0.04262644052505493
-0.1970387697219849
-0.003616839647293091
-0.1393745392560959
0.1649261564016342
-0.7221084833145142
0.1860805153846741
-0.1274495422840118
0.06009018421173096
-0.04327121376991272
-0.07357326149940491
-0.03090521320700645
-0.1968206763267517
0.1558819711208344
0.01336604729294777
0.4349686205387115
0.04710131883621216
0.1644177436828613
-0.07017789036035538
0.001791961491107941
0.1434654593467712
0.001373101025819778
-0.3101654052734375
0.04396757483482361
0.06591552495956421
0.003928706049919128
0.7799084186553955
-0.04921412467956543
-0.134446382522583
-0.2331689298152924
-0.09956774115562439
-0.005530402064323425
-0.005466785281896591
0.2954006195068359
0.2003426551818848
0.1547193229198456
0.17958664894104
0.07365953922271729
-0.04122550785541534
1.090619683265686
0.02706747874617577
0.1081012487411499
-0.2864217162132263
0.1285844147205353
0.1003115177154541
-0.02564045786857605
0.04741716384887695
-0.2950642108917236
-0.02812561392784119
-0.002880901098251343
-0.1369428336620331
-0.0426865816116333
0.7211065292358398
-0.02548453211784363
-0.4069892168045044
-0.9309221506118774
0.04247057437896729
-0.1094196140766144
-0.1975084245204926
0.4341834783554077
0.0248296856880188
-0.02470135688781738
-0.07804536819458008
-0.003679223358631134
0.7564177513122559
-0.157593846321106
0.005449771881103516
0.08168762922286987
0.1389413923025131
0.09648978710174561
-0.08549308776855469
0.06026697903871536
0.05327293276786804
-0.1436960697174072
-0.001886554062366486
-0.06003856658935547
0.1646549701690674
-0.2416648864746094
0.06691312789916992
0.870074987411499
0.02819675207138062
0.04891502857208252
0.1056440770626068
0.8781421184539795
0.05698556452989578
0.05313475430011749
0.1790238320827484
-0.05530253052711487
1.096512794494629
-0.1094030141830444
-0.1792708337306976
-0.1511098444461823
0.6906287670135498
0.1650934815406799
-0.04377445578575134
0.2300876379013062
0.4137504100799561
0.4018668830394745
0.2324794232845306
0.07355362176895142
-0.2323625087738037
0.07032208889722824
-0.3045510053634644
-0.3689619898796082
0.001848980784416199
0.07618691772222519
-0.05552631616592407
-0.05931813642382622
0.06860888004302979
0.2429983615875244
-0.1664916276931763
-0.003655560314655304
0.3795402050018311
-0.002289772033691406
0.04218608140945435
0.1031262874603271
-0.05821824073791504
-0.09598606824874878
-0.1432231664657593
-0.01715285703539848
-1.138448715209961e-05
0.004443086683750153
-0.2892417907714844
0.08791002631187439
0.1182527542114258
-0.09778010845184326
-0.28934645652771
-0.1837324798107147
-0.00290834903717041
0.1728983223438263
-0.1426469087600708
0.1365615725517273
-0.05946981906890869
0.04399901628494263
0.1394619196653366
-0.00657162070274353
0.1395919322967529
0.06407633423805237
0.00601988285779953
-0.1401007175445557
0.3098282814025879
0.179633617401123
-0.182877779006958
0.02212950587272644
-0.03535014390945435
0.02327042818069458
-0.02843868732452393
-0.3122817277908325
0.4315080642700195
-0.0815621018409729
0.1532554477453232
0.0368884839117527
-0.1009915769100189
-0.03941696882247925
-0.1399014890193939
0.1395366191864014
0.2648534774780273
-0.472430944442749
-0.754284143447876
0.05848264694213867
-0.00185278058052063
0.0610804557800293
-0.05446457862854004
-0.0823996365070343
0.00133553147315979
-0.1423455476760864
-0.0238862931728363
-0.2232481986284256
-0.007114928215742111
-0.6481354236602783
-0.4008359909057617
-0.08975887298583984
0.4721379280090332
-0.02391552925109863
0.1044736802577972
0.04413065314292908
0.01285433769226074
0.1947002410888672
0.1793980300426483
0.0153217613697052
0.2571530342102051
-0.01956458017230034
-0.0001827050000429153
-0.04096442461013794
0.232996940612793
-0.4062653183937073
0.0163002610206604
-0.0386650562286377
-0.8716278076171875
0.1541094481945038
-0.02252793312072754
-0.001639612019062042
0.002261698246002197
-0.005764074623584747
0.03949695825576782
-0.1213294193148613
0.08247759938240051
-0.1184164881706238
0.03004394471645355
-0.126848429441452
-0.08593696355819702
-0.04266548156738281
0.06582045555114746
0.08045661449432373
-0.1232903674244881
-0.0242372453212738
-0.005783230066299438
0.04838472604751587
-0.04187268018722534
-0.2345378845930099
-0.02204392105340958
0.8445556163787842
0.01735973358154297
0.05551505088806152
-0.05349838733673096
-0.004091478884220123
-0.7644091844558716
0.01571619510650635
0.1093758046627045
-0.07611354440450668
0.3852968215942383
0.05441676080226898
0.1032312363386154
-0.8139391541481018
0.02705467492341995
0.30503249168396
0.7961267232894897
0.08810006082057953
-0.04286575317382812
0.03635132312774658
0.0003090552054345608
0.05445611476898193
-0.07633304595947266
0.07661036401987076
-0.4343667030334473
0.07859188318252563
-0.2899489402770996
-0.1349054276943207
0.09749212861061096
0.01092538237571716
-0.1650499105453491
-0.6909984946250916
-0.2823225259780884
-0.2299434691667557
-0.04326606169342995
0.2317392379045486
0.05327749252319336
0.5737581253051758
-0.139554500579834
0.2267695516347885
-0.1331419944763184
-0.1770470291376114
0.4171969592571259
0.1297057569026947
0.0002366350963711739
-0.09557199478149414
0.05916330590844154
0.6914724111557007
-0.08981561660766602
-0.1171762496232986
0.1192019134759903
-0.1075789928436279
-0.08046285808086395
-0.0602167472243309
-0.3834932446479797
0.003627300262451172
0.00837332010269165
0.02362820506095886
0.05410544946789742
0.1782521605491638
0.01087956875562668
-0.08598023653030396
0.281842827796936
0.1507374942302704
0.05954444408416748
0.2988795638084412
-0.08942496776580811
-0.2813999652862549
0.1860996782779694
0.08861804008483887
0.4371120929718018
0.02302455902099609
-0.1074814200401306
0.1211075484752655
0.1815405786037445
-0.9292702674865723
0.02550110220909119
0.09290695190429688
0.721440851688385
-0.03938797116279602
0.07564640045166016
0.1207523345947266
-0.03654062747955322
0.008575604297220707
-0.1353313326835632
-0.09988877177238464
0.17952561378479
0.01665087044239044
-0.0378725528717041
0.01643732190132141
0.1651164889335632
0.005448918789625168
0.2832472026348114
5.254428833723068e-05
0.01605081558227539
-0.2239133715629578
-0.1838711500167847
-0.08087552338838577
0.02532976120710373
-0.1093546748161316
0.012434933334589
0.06953497231006622
0.09851863980293274
-0.1428282856941223
0.003042782889679074
-0.6489263772964478
0.2438521385192871
-0.00284402072429657
0.02540151961147785
0.06649309396743774
0.005047127604484558
0.02410602569580078
-0.09168273210525513
0.09260877966880798
-0.005317889153957367
-0.04161334037780762
0.08439397811889648
-0.03919968008995056
-0.000191807746887207
0.1087220311164856
0.1970147490501404
-0.08130383491516113
0.05483371019363403
-0.1789835840463638
-0.1055628657341003
0.005524316802620888
1.367274671792984e-05
-0.1152326762676239
-0.03527567535638809
0.001848667860031128
-0.2635977864265442
0.02734831348061562
-0.07604715973138809
-0.04963397979736328
-0.001292662578634918
-0.1192235946655273
-0.4155232310295105
-0.06070613861083984
-0.06242632865905762
0.06230401992797852
-0.1591154932975769
0.003600418567657471
-0.2818033993244171
0.09929764270782471
0.005724184215068817
-0.001481525599956512
0.03277324140071869
-0.006039746105670929
-0.1215855181217194
-0.006956090219318867
0.1227836012840271
-0.06714043021202087
-0.1722691655158997
-0.1232753992080688
0.008624754846096039
-0.136975422501564
0.0392109751701355
0.1383628845214844
0.02832448482513428
0.0813927948474884
0.09304755926132202
0.01298648118972778
0.3113341331481934
0.1230995655059814
0.2265114188194275
0.04102730751037598
-0.05908185988664627
0.04099452495574951
0.172303318977356
0.135118380188942
1.093400001525879
-0.1203963756561279
0.04209423065185547
0.005965977907180786
-0.2311969548463821
0.1081632375717163
-0.02889516949653625
-0.2004825174808502
-0.1644601821899414
0.1561273634433746
-0.1796565055847168
0.01712067425251007
0.1843181699514389
0.1074124574661255
-0.2264739871025085
-0.233179435133934
0.1843997836112976
-0.1654741168022156
-0.04302838817238808
0.0555550754070282
0.07871759682893753
-0.1792467683553696
0.02549639344215393
0.08934837579727173
0.136772632598877
-0.2924725413322449
-0.5726428031921387
0.03766202926635742
0.1020650938153267
0.08060945570468903
0.01644936203956604
0.9272959232330322
0.8712522983551025
-0.1853778958320618
0.0535430908203125
0.003792852163314819
0.05160331726074219
0.08966302871704102
-0.044118732213974
-0.07139512896537781
0.101354718208313
-0.1347591876983643
0.03000597096979618
0.2348848134279251
0.1368396878242493
0.02503454685211182
0.2243804335594177
0.04626750946044922
-0.07617691159248352
0.005914688110351562
-0.09325431287288666
-0.03002180904150009
-1.091281533241272
-0.143765926361084
-0.1200801581144333
0.9290522336959839
0.1819740831851959
0.1005949974060059
-0.8766694068908691
-0.003580771386623383
0.00922587513923645
0.08900196850299835
-0.05263052135705948
-0.08946418762207031
0.08271026611328125
-0.01267628651112318
0.04189765453338623
-0.009469866752624512
0.1043045222759247
0.06842165440320969
0.4720858335494995
-0.001952886581420898
-0.01703193783760071
-0.07360675930976868
0.1018791198730469
0.06953823566436768
0.1182035803794861
-0.7807225584983826
-0.4010951519012451
0.001265823841094971
-0.305238664150238
-0.00307762622833252
-0.1389896422624588
-0.008595682680606842
-0.0134335458278656
-6.221234798431396e-06
0.02474713325500488
0.002064794301986694
0.1835145950317383
-0.003709509968757629
0.03345510363578796
0.09368574619293213
0.03270381689071655
-0.1854129731655121
0.1345515251159668
0.02521896362304688
0.310722827911377
-0.1847464144229889
-0.1860529780387878
0.02832094579935074
-0.1214848607778549
0.05920171737670898
0.1657859086990356
0.02907183766365051
0.7643957138061523
-0.004377737641334534
-0.06558215618133545
0.1970781087875366
-0.05970602482557297
-0.001543492078781128
0.1667113304138184
0.002921748906373978
-0.03948551416397095
-0.03564492613077164
-0.001887865364551544
-0.06027188152074814
-0.05388645455241203
0.8108817338943481
-0.1063587665557861
0.01386985927820206
0.1857961863279343
0.003490515053272247
-0.136483907699585
-0.00485045462846756
0.06352636218070984
-0.0672575831413269
0.0734955370426178
0.9666574001312256
-0.02332505583763123
0.2869910597801208
-0.1224877536296844
-0.06862622499465942
-0.02726494520902634
-0.724801778793335
-0.1636628657579422
-0.07584179937839508
-0.1211437582969666
-0.1029765605926514
-0.02413439750671387
-4.831608384847641e-05
-0.1039471030235291
0.05693614482879639
0.01489232294261456
-0.1038659512996674
0.2926442623138428
-1.094344019889832
0.1841035187244415
-0.144329696893692
-0.1032772064208984
-0.03069009631872177
-0.7783815860748291
-0.01425295323133469
-0.02388101816177368
0.05414986610412598
-0.1706737875938416
-0.04068005084991455
0.1299662590026855
0.03956043720245361
-0.4350208640098572
0.1327965259552002
-0.5734584927558899
-0.004893034696578979
-0.006949253380298615
-0.005388528108596802
0.4339214265346527
0.2915177345275879
0.5065526962280273
0.1395247280597687
-0.03525885567069054
-0.0700235441327095
-0.3046485483646393
0.006231993436813354
-0.0544547438621521
-0.1373777389526367
-0.001499965786933899
-0.1579173058271408
0.06423035264015198
-0.6913621425628662
0.08164089918136597
0.0139007568359375
-0.1179641336202621
0.1279442757368088
0.024322509765625
0.8475103378295898
0.03662631288170815
0.03509050980210304
-0.0880788266658783
-0.1185615062713623
-0.002642184495925903
-0.1633930057287216
-0.0353996753692627
-0.02421677112579346
0.1281578540802002
-0.08161723613739014
0.05283451825380325
-0.0356164276599884
0.1195288598537445
0.1029567718505859
-0.05653554201126099
0.4721621572971344
-0.1537416577339172