# vtk DataFile Version 2.0
created with he
ASCII
DATASET POLYDATA
POINTS 2562 double
0.660203754901886 0.6287594437599182 0.2251558005809784
-0.8019001483917236 0.5674297213554382 -0.1023215129971504
-0.8028803467750549 0.2819827497005463 -0.2806353271007538
-0.3827433884143829 -0.7906801700592041 -0.2589848935604095
-0.159085676074028 -0.6617801189422607 0.3274720311164856
0.3014070689678192 0.1212750226259232 -0.1920217722654343
-0.3650259971618652 -0.7007004618644714 -0.3125663995742798
-0.2464356869459152 -0.4615935385227203 -0.2860492169857025
-0.6368095278739929 -0.6880217790603638 -0.1913973689079285
0.1963697671890259 -0.6994662284851074 -0.3268857002258301
-0.06575649231672287 0.7168420553207397 -0.3274340629577637
-0.5805520415306091 -0.173409178853035 0.3146612644195557
0.05079078301787376 0.08989512920379639 -0.1136004626750946
0.5336844325065613 0.6859433650970459 -0.2669223546981812
-0.7769619822502136 -0.6295475363731384 4.082556552020833e-05
-0.5529727339744568 -0.62556391954422 -0.2910328209400177
0.1708752363920212 -0.5293455719947815 -0.2988887131214142
0.153205543756485 0.03020868264138699 -0.1261160373687744
-0.6592332124710083 -0.3431813418865204 0.3247614204883575
-0.9921306967735291 -6.145781412669749e-07 0.0682746097445488
0.8858779668807983 0.4595849514007568 -0.03441406786441803
-0.4991190433502197 0.4457137882709503 -0.3265255689620972
0.4312064647674561 -0.8828059434890747 -0.1019290313124657
0.5439295768737793 -0.826965868473053 -0.07769753038883209
0.286270946264267 -0.4935629367828369 -0.3039259612560272
-0.107769750058651 -0.85318523645401 0.27409827709198
0.2202261090278625 0.3776691555976868 -0.2468528896570206
-0.2068010121583939 0.4299260675907135 -0.2657825946807861
-0.2202124446630478 -0.3776360154151917 0.2468356639146805
-0.03387847542762756 -0.7632744908332825 0.3205325305461884
0.7684794068336487 -0.04584025964140892 0.3190190196037292
0.4015292823314667 0.06063292920589447 -0.2316125184297562
0.2309335470199585 -0.3235026597976685 -0.2273643463850021
-0.6840572357177734 0.7199755907058716 -0.06380289047956467
0.5716149210929871 0.292810469865799 0.3227746784687042
0.5336955785751343 -0.6859462857246399 -0.2669149041175842
-0.8553897142410278 0.3022766709327698 0.2302751243114471
0.4492625296115875 0.6210966110229492 0.3198944926261902
-0.1361161321401596 0.3177409470081329 0.2019597440958023
0.3277794420719147 -0.327782541513443 -0.2594752609729767
0.4479192793369293 -0.7681576609611511 -0.2490393370389938
-0.8040294051170349 0.348936140537262 -0.2607058882713318
-0.8554086089134216 0.3022742569446564 -0.2302560657262802
-0.5854196548461914 0.5032820105552673 0.31841641664505
-0.4078726768493652 0.5892717838287354 0.3276385068893433
-0.2739382088184357 0.3538291156291962 0.2518230080604553
-0.6840479373931885 0.7199661135673523 0.06386434286832809
0.8018836379051208 -0.5674242377281189 0.1023697480559349
-0.2916893064975739 -0.239960566163063 -0.2176136523485184
0.7509500980377197 -0.6130940914154053 -0.1346413940191269
-0.2067839801311493 0.4298977553844452 0.2657673954963684
0.8967776298522949 -0.2492163330316544 0.2009949833154678
-0.9254136085510254 -0.3284759223461151 -0.1034000590443611
-0.2455755770206451 -0.2098225951194763 -0.1911319196224213
-0.03910520672798157 -0.9933426380157471 0.05904130637645721
-0.1787039488554001 0.8434759974479675 -0.2723952829837799
-0.4604653418064117 -0.8450731039047241 0.1492835581302643
-0.2309510707855225 0.3235044181346893 -0.2273700833320618
-0.08035473525524139 0.5061975717544556 0.2815515100955963
0.2848177552223206 -0.6323838233947754 -0.3280375301837921
-0.7377268671989441 -0.5286064743995667 0.2299019247293472
-0.9618231654167175 0.19883131980896 0.1028853952884674
-0.5397116541862488 0.08804026246070862 0.2953981459140778
-0.9907687902450562 0.1355624794960022 3.644593380158767e-05
-0.06575290858745575 0.7168328762054443 0.3274347186088562
0.07831291109323502 -0.9969288110733032 6.633580051129684e-05
-0.2079355418682098 -0.5636131763458252 0.3132582306861877
0.4846015572547913 -0.2388554662466049 -0.2928726673126221
0.6089370846748352 -0.7419431805610657 -0.1542004495859146
0.2206177413463593 0.8862024545669556 0.2233438193798065
0.5760752558708191 0.7190216183662415 -0.2134598791599274
-0.1871868073940277 0.2934499979019165 0.2031206786632538
0.6246994733810425 0.02747312374413013 -0.3193989396095276
-0.7509309649467468 -0.6130723357200623 0.1347041130065918
-0.02665427513420582 -0.5118520855903625 0.2815557420253754
0.4285594522953033 -0.6781953573226929 0.3077481091022491
-0.4496480524539948 -0.03013549745082855 0.2533476650714874
0.977286159992218 0.2023502886295319 -0.03425958007574081
-0.1158457025885582 0.4169427752494812 -0.2446893006563187
-0.1502046436071396 -0.1496719121932983 -0.1441327184438705
-0.6248124837875366 -0.08293817192316055 0.3204696774482727
0.4062072932720184 -0.734556257724762 0.2882929742336273
-0.02665671892464161 0.5118473172187805 0.2815537750720978
-0.459990531206131 -0.8835833072662354 -0.04773995652794838
-0.1532054990530014 -0.03020933270454407 0.1261160522699356
0.2455610334873199 -0.2098422050476074 -0.1911327093839645
-0.09560491144657135 -0.6705508828163147 -0.3272415697574615
0.1275203675031662 0.36881023645401 -0.2237906903028488
-5.56154645892093e-06 0.4755688011646271 -0.2650857865810394
-0.0348290279507637 0.4032637178897858 -0.2309632748365402
-0.9081514477729797 0.06070417538285255 0.2269243597984314
-0.2500579059123993 -0.150865375995636 0.1768549680709839
-0.1903828233480453 0.4803837835788727 -0.2833295464515686
-0.7083545327186584 -0.1822444200515747 -0.3263732492923737
0.6658788323402405 -0.2208061516284943 0.3281095325946808
0.4847407341003418 0.5048077702522278 0.32811239361763
-0.9598210453987122 0.130786806344986 0.1362711936235428
-0.1928664445877075 0.9754310250282288 0.05801113694906235
0.1537498980760574 -0.9647882580757141 0.1169273927807808
-0.4680797457695007 0.3578599095344543 -0.3099056780338287
1.007036098599201e-05 -0.2870835363864899 0.1746364682912827
-0.0446951687335968 0.3131595253944397 -0.187998503446579
-0.03601577505469322 -0.8581519722938538 0.2748927772045135
0.04716337472200394 0.2611711025238037 0.1651967763900757
0.6436569094657898 0.7632733583450317 0.03037870489060879
0.961832582950592 -0.1988373547792435 0.1028553619980812
0.0869498997926712 -0.3402360379695892 -0.20462466776371
0.1361094862222672 0.3177201151847839 0.2019492238759995
0.847200334072113 -0.5161290168762207 -0.06868010014295578
0.5716232657432556 0.2928262948989868 -0.3227772414684296
-0.07831145823001862 -0.9969289302825928 7.244165317388251e-05
0.142429530620575 -0.2639054954051971 0.1804048866033554
0.5805624127388 0.1734208613634109 -0.3146648108959198
-0.3004929423332214 -0.7204090356826782 0.315835177898407
0.08697386831045151 -0.3402096331119537 0.2046151459217072
-0.05079471692442894 -0.08989386260509491 0.1136006191372871
0.7522902488708496 -0.3925515711307526 -0.2822971045970917
0.02963712625205517 0.5911859273910522 -0.3107220232486725
0.3811640739440918 -0.2997093200683594 0.2693571746349335
0.036021638661623 -0.8581470847129822 0.2748962640762329
-0.7084314227104187 0.3040813207626343 -0.3187193274497986
0.8471938967704773 0.5161223411560059 0.06871913373470306
-0.3163402378559113 -0.8114362359046936 0.2654271125793457
0.7084015607833862 -0.3040809333324432 0.3187269866466522
0.9800834655761719 0.06652086228132248 0.1023682281374931
0.1009294167160988 -0.1197544187307358 -0.1262446641921997
0.1139737516641617 0.9416221976280212 -0.1742557883262634
-0.6592451333999634 0.3431839942932129 -0.3247595429420471
-0.353649765253067 -0.03039734065532684 -0.2064637541770935
0.1531991064548492 -0.0301949568092823 -0.1261135190725327
-0.03188265115022659 0.674974262714386 0.3271171450614929
-0.05006787925958633 0.1488028317689896 -0.1263533681631088
-0.6248412132263184 -0.08294606953859329 -0.320475846529007
-0.1009360924363136 -0.1197630688548088 0.1262477189302444
-0.3045132458209991 1.576090835442301e-05 -0.1825211495161057
-0.6201382875442505 -0.2576406598091125 0.3267538547515869
0.5397226214408875 -0.08804084360599518 0.2954022884368896
-0.1469919681549072 -0.2077267169952393 0.16061931848526
-0.570421040058136 -0.5647305250167847 -0.3075650036334991
-0.8858751654624939 0.4595774114131927 0.03446521610021591
-0.8352856636047363 2.676793883438222e-06 0.2908188700675964
0.4847411513328552 -0.5048075318336487 0.32811239361763
0.4911809861660004 0.6531665325164795 0.3007910549640656
-0.5336976647377014 0.6859359741210938 -0.2669204771518707
0.0391075499355793 -0.9933688044548035 -0.05890917778015137
-0.2206382751464844 -0.8862584829330444 -0.223273754119873
0.6840543150901794 -0.7199804782867432 -0.0637957975268364
0.6840453743934631 -0.7199673652648926 0.06386834383010864
-0.4911738038063049 -0.6531580090522766 0.3007966279983521
-0.3467721343040466 -0.6123920679092407 -0.3280908763408661
-0.359026163816452 -0.8477917909622192 -0.2142855226993561
0.798183798789978 0.217371329665184 -0.2954815924167633
0.8565619587898254 -0.05621804296970367 0.2752676904201508
0.688537061214447 -0.4978525042533875 -0.2815284729003906
0.885876476764679 -0.4595848023891449 -0.0344259962439537
0.2222145795822144 0.6489755511283875 -0.3277711272239685
-0.2309224754571915 -0.3234660923480988 0.2273464798927307
-0.1484197676181793 -0.5771058201789856 0.3118805885314941
0.2455771118402481 0.2098340392112732 0.1911359876394272
-0.06576433777809143 -0.7168341875076294 -0.3274345695972443
0.896170973777771 0.3176611661911011 0.1703877598047256
-0.7052793502807617 -0.1252362877130508 0.3276584446430206
0.776960015296936 0.6295499205589294 3.160625419695862e-05
0.2662876844406128 0.9582430720329285 -0.05677539110183716
-0.1885358840227127 0.9305449724197388 -0.1726652383804321
-0.5272911190986633 -0.5346221923828125 -0.3234089016914368
0.4015520215034485 -0.06062424182891846 0.2316229641437531
0.8382011651992798 -0.1691015660762787 -0.2777018845081329
[...]
POINT_DATA 2562
SCALARS fx double 1
LOOKUP_TABLE default
-0.1041462123394012
0.1287536472082138
0.07602931559085846
0.05960933864116669
0.001143226400017738
0.03259650617837906
-0.08366965502500534
-0.03695109114050865
0.2858993113040924
0.007534950971603394
-0.001454614102840424
-0.05936699360609055
0.02476334571838379
-0.04622101038694382
-0.3632065653800964
-0.08049335330724716
0.02407534793019295
0.05164260044693947
-0.0597081296145916
-0.1012268885970116
0.3286537826061249
-0.002251867204904556
-0.06469880044460297
0.001734457910060883
0.04115118831396103
0.006288032978773117
0.02581090293824673
-0.02700867503881454
-0.02591370232403278
-0.005902737379074097
0.11585932970047
0.04755615070462227
0.02457218803465366
-0.07868434488773346
0.02727719023823738
-0.04638489335775375
0.1152791753411293
0.07859894633293152
-0.01206255704164505
0.04583962261676788
-0.04917458072304726
0.003927618265151978
0.1152664572000504
-0.1135456562042236
-0.005705274641513824
-0.03494102507829666
-0.07836112380027771
-0.1291382759809494
-0.03138154745101929
-0.2304317802190781
-0.02704109251499176
-0.4143273532390594
0.154821902513504
-0.02574101090431213
-0.006944510154426098
0.01254522055387497
0.1414791494607925
-0.02457265555858612
-0.0100499065592885
-0.003207243978977203
0.1001714617013931
0.155116081237793
-0.07913427799940109
-0.4805489182472229
-0.001450389623641968
0.03922989964485168
-0.02346184849739075
0.07705464959144592
-0.1958843618631363
-0.05341600254178047
-0.1610733717679977
-0.0177956260740757
0.03977471962571144
0.2303964346647263
-0.00310333096422255
0.09980484843254089
-0.06006063148379326
0.3616054356098175
-0.0115040484815836
-0.03023700788617134
-0.03619203716516495
0.04987319186329842
-0.00308775925077498
-0.08723067492246628
-0.05165069550275803
0.0258469320833683
0.0004169642925262451
0.01138726435601711
-1.993306796066463e-06
-0.007622271776199341
0.1307719647884369
-0.02936116605997086
-0.02700839750468731
-0.03234545886516571
-0.002411723136901855
-0.00395099213346839
0.2966481149196625
-0.03454612195491791
-0.03869405388832092
-0.06258397549390793
8.707866072654724e-07
-0.003715846687555313
0.001916110515594482
0.005469962954521179
0.2032907009124756
-0.154786229133606
0.007158594205975533
0.0120801106095314
0.08193907141685486
0.02718964032828808
-0.03923023864626884
0.01450370065867901
0.05939354747533798
-0.06483573466539383
0.00718133058398962
-0.02476100996136665
-0.06069459766149521
0.003415632992982864
0.05705834925174713
-0.001907731057144701
-0.1273562461137772
0.08185416460037231
0.03618450462818146
0.1273567229509354
-0.1522074788808823
0.03307914733886719
-0.04466962814331055
-0.06030082330107689
-0.03780890256166458
0.051638163626194
0.0001165643334388733
-0.01604602113366127
-0.0359581857919693
-0.03307617455720901
-0.03448155522346497
-0.002032779157161713
0.07863134145736694
-0.02025231532752514
-0.1351093798875809
-0.3282447457313538
-0.08109171688556671
-0.003940510097891092
0.103575088083744
0.04595592245459557
0.006982959341257811
0.05352616310119629
0.07887697219848633
0.0783173143863678
-0.1036797389388084
0.001950200647115707
0.09502658247947693
0.1250572204589844
-0.1136478334665298
-0.05668316408991814
0.3283614814281464
-0.00229036808013916
-0.02437824383378029
-0.0171845443546772
0.02577861398458481
-0.001424819231033325
-0.3359600305557251
-0.00851139985024929
0.3630903661251068
0.04823482036590576
0.07256985455751419
-0.06352140009403229
0.04743893072009087
-0.09621674567461014
0.005598444491624832
0.06218469515442848
0.07864739000797272
0.02476844936609268
0.04739753901958466
0.02336568757891655
0.01035722158849239
-0.1748735457658768
0.05120652914047241
0.4147798717021942
0.02753743156790733
-0.2554280757904053
0.05692508816719055
-0.03480833768844604
0.1611759960651398
0.06379043310880661
-0.002962304512038827
-0.006986513733863831
0.0997580885887146
0.007415068335831165
0.1133972182869911
-1.646578311920166e-06
-0.255262702703476
0.02701758220791817
-0.03673950955271721
-0.1249163672327995
-0.04792629554867744
-0.06314490735530853
-0.07865875959396362
-0.05598102509975433
-0.1156271994113922
0.01766611635684967
-0.1537886559963226
-0.129090741276741
-0.2481676340103149
-0.04116558283567429
0.06670321524143219
0.009465813636779785
0.06504933536052704
0.006006665527820587
0.02928225509822369
0.0001376352738589048
-0.3667892217636108
0.06469332426786423
0.02202726528048515
-0.139257475733757
0.04990053176879883
0.04581623151898384
-0.03782572597265244
0.0677020251750946
-0.01004383713006973
0.06760288774967194
0.06793374568223953
0.06754754483699799
0.02950618788599968
0.1187079921364784
-0.116005927324295
-0.0005085654556751251
-0.09761145710945129
-0.03223216533660889
-8.55743492138572e-05
-0.3614467680454254
0.03309181332588196
-0.3412098288536072
-0.01817482709884644
-0.03619655966758728
0.03160137310624123
0.02947919443249702
0.01605122536420822
0.004427086561918259
-0.01450967416167259
-0.0257083922624588
0.1394944041967392
-0.02905155904591084
-0.02349375002086163
0.1414239108562469
0.05595601722598076
-0.02405849471688271
-0.01004130952060223
0.120715893805027
0.1138000264763832
-0.03609859198331833
0.003427434712648392
-0.003094280837103724
-0.007573872804641724
-0.2967642247676849
-0.1394756138324738
0.006942823529243469
-0.0001571506727486849
0.02581617049872875
-0.01794725842773914
-0.01802399754524231
-0.01732915639877319
-0.06144523620605469
0.3664411902427673
0.0246405191719532
0.01140336971729994
0.01815318316221237
-0.0004026815295219421
-0.03565580397844315
-0.1544811576604843
0.007505908608436584
-0.1413576304912567
0.1533767431974411
0.001943819224834442
0.04723632335662842
-0.1209214404225349
0.3834949731826782
-0.04260291159152985
-0.3411165177822113
-0.05878883600234985
-0.06494124233722687
-0.04903384298086166
0.1342748552560806
-0.3832099139690399
0.1211200952529907
-0.08342467248439789
0.1633767783641815
-0.002410024404525757
0.006974056363105774
-0.05418030917644501
0.007527617737650871
-0.03831146284937859
-0.1314679086208344
-0.1304443776607513
0.1293744295835495
0.2899334728717804
0.04260295256972313
0.3281339108943939
-0.09759480506181717
-0.0666060745716095
0.02593700215220451
-0.005629964172840118
-0.2900746166706085
-0.02760237641632557
-0.3407034575939178
0.03161899745464325
-0.00695231556892395
0.08360375463962555
-0.007145326118916273
0.0001018641050904989
-0.002964677754789591
-0.05106449872255325
0.1946488171815872
0.07827936112880707
-0.08702500909566879
0.02593764662742615
0.002031281590461731
0.0640309602022171
-0.0766952782869339
-0.02334826253354549
0.1253003627061844
0.07470105588436127
-0.07564427703619003
0.09790018200874329
0.1251583844423294
0.1526720374822617
-0.0005149058997631073
0.06115050241351128
-0.02593546360731125
-0.0725749135017395
0.0636146143078804
-0.01735399663448334
-1.657754182815552e-07
-0.02405476942658424
0.01734521798789501
0.1476046293973923
0.02585914358496666
0.1351652443408966
0.1308918297290802
0.02922645211219788
0.1040580123662949
-7.584691047668457e-06
0.04259434714913368
-0.007115012034773827
0.031255092471838
0.1530803740024567
-0.02726717293262482
-0.1152724251151085
0.1744617819786072
-0.03158947825431824
-0.01813895255327225
-0.005670115351676941
0.07410335540771484
-0.01800964400172234
0.1138690710067749
0.07502419501543045
0.06339702010154724
0.3197990655899048
-0.0488964319229126
0.3497235774993896
-0.1477542221546173
0.08348371088504791
0.001966781914234161
-0.01799498498439789
-0.005659639835357666
0.01804838515818119
0.2035766690969467
-0.02699952386319637
-0.05757979303598404
0.05436384677886963
0.04753400385379791
-0.04714283347129822
-0.0004232078790664673
0.04464758932590485
0.07255207002162933
-0.06776810437440872
0.363146185874939
0.06871418654918671
-0.005447834730148315
-0.02746468037366867
0.2555089592933655
-0.004426848143339157
0.06418399512767792
0.1206192821264267
0.287675142288208
0.1394238471984863
0.007071298081427813
0.01276915241032839
-0.361681342124939
0.005389261990785599
4.917383193969727e-07
-0.06705223023891449
0.1640885770320892
-0.04293061420321465
2.420371311018243e-05
0.07878397405147552
-0.1532317101955414
-0.002251274883747101
-0.02024165913462639
0.02910858765244484
0.002269504591822624
-0.006359431892633438
0.2855232357978821
0.009297553449869156
-0.05769297480583191
0.0001331102102994919
0.06560364365577698
0.007608006242662668
-0.01763562858104706
-0.005437325686216354
0.0240439847111702
-0.1958629190921783
-0.194637656211853
0.06008390337228775
-0.134356677532196
0.0269819013774395
-0.0725492388010025
0.001464515924453735
0.2244432270526886
-0.03235045820474625
0.002036094665527344
0.04796960577368736
0.07531542330980301
-0.03137447685003281
-0.0244799442589283
-0.1343823820352554
0.004479564726352692
0.03161366283893585
0.4146076440811157
0.04288722574710846
0.001608431339263916
-0.03892406821250916
-0.06473824381828308
-0.02665355801582336
-0.06484992802143097
-0.3618834614753723
0.01603049784898758
-0.06713272631168365
0.002936661476269364
0.3362922966480255
0.1639917492866516
-0.1522611528635025
-0.005501012783497572
0.05140455439686775
0.01816156506538391
0.04721280932426453
-0.124893382191658
0.118712306022644
0.004402086138725281
0.09757909178733826
-0.02925761230289936
-0.03472942113876343
-0.003944100812077522
-0.01723272353410721
-0.06081541627645493
-0.2969315946102142
-0.1273732781410217
-0.02580257505178452
0.06298599392175674
-0.1032793745398521
0.1248641014099121
-0.009277470409870148
-0.06854686886072159
0.02574073523283005
-0.06000846996903419
-0.2245994061231613
0.06306461989879608
0.04899969324469566
0.01704496517777443
0.05990216508507729
-0.1396135091781616
-0.1343198865652084
-0.06337545812129974
0.03466683626174927
0.07803627848625183
-0.03767431527376175
-0.01148400083184242
0.341076523065567
0.02923964895308018
-0.003426253795623779
0.06153722107410431
0.1479711383581161
-0.1332454979419708
-0.09835146367549896
0.04725059121847153
-0.007518909871578217
-0.1551807373762131
-0.007063503377139568
-0.0480225645005703
0.1570885181427002
0.1610778719186783
-0.06627878546714783
-0.1056229323148727
-0.04106361791491508
-0.1036490947008133
0.07420346140861511
-0.1156939268112183
0.03149879351258278
-0.1637729406356812
0.08722459524869919
0.06221512332558632
-0.002966756001114845
-0.1394912302494049
0.008588537573814392
0.0005273111164569855
0.2903516888618469
-0.07501226663589478
-0.03861090540885925
-0.1394396275281906
0.3832267224788666
0.4077635705471039
0.005369584541767836
0.03138112649321556
-0.230353981256485
0.03905226662755013
-0.3498410582542419
0.1746664345264435
0.007080286741256714
-0.00972103513777256
-0.05153652653098106
-0.001168429851531982
-0.1158308759331703
-0.1612237393856049
0.05561139434576035
-0.01149282418191433
-0.08176490664482117
0.1343643963336945
0.06388359516859055
0.003238379955291748
0.06496831029653549
0.1348638385534286
0.03572391718626022
0.01033098436892033
4.492700099945068e-06
-0.03677774593234062
-0.2874993085861206
0.1202888935804367
0.03722763806581497
-0.03452085703611374
-0.3281899690628052
0.001237459480762482
-0.0001434590667486191
-0.05950801074504852
-0.05163946747779846
-0.02581383287906647
-0.03986302390694618
0.03867576271295547
-0.03959157690405846
0.00742274709045887
0.1476859599351883
0.06575143337249756
0.02709555812180042
-0.1545040607452393
0.3616637885570526
0.08697443455457687
-0.1945614814758301
0.01198972202837467
-0.06615068018436432
-0.07900462299585342
-0.009287048131227493
-0.1959728300571442
-0.06400180608034134
-0.02580868080258369
-0.02207574248313904
-0.006985455751419067
0.05088646709918976
-0.01278042700141668
-0.07255280017852783
0.1548932492733002
0.2970828413963318
0.1211093068122864
-0.3414466083049774
-0.06439513713121414
-0.00706172501668334
-0.1534251272678375
-0.05084230378270149
-0.02589919790625572
-0.01114566437900066
-0.0516367144882679
-0.02079976350069046
0.009578555822372437
0.0075564906001091
0.1036549806594849
-0.4805676639080048
0.07583886384963989
-0.1207383871078491
-0.05577411502599716
-0.06176188215613365
0.01604527980089188
-0.1139857247471809
0.2031573504209518
-0.008689733222126961
-0.1135251149535179
0.1916961222887039
0.001421332359313965
-1.728534698486328e-06
-0.03447845205664635
0.005387729033827782
0.04924575984477997
0.005423642694950104
-0.06505714356899261
0.1054117530584335
-0.02194187045097351
-0.05571581050753593
0.005893192254006863
0.06775644421577454
0.03164418786764145
0.01277822628617287
-0.001955211162567139
0.02580409497022629
-0.0371401347219944
0.01508183777332306
-0.05088835209608078
-0.03241659328341484
-0.06130044907331467
-0.05352570116519928
0.002333968877792358
0.01249444484710693
0.01736141741275787
0.03165464848279953
0.02421808242797852
-0.06343691051006317
-0.230558305978775
-0.01210404932498932
-0.1260470598936081
0.02579179219901562
-0.07858175039291382
0.1634118258953094
0.03683075681328773
-0.3198946714401245
0.04768097400665283
0.1394230723381042
-0.03823584318161011
0.4507502615451813
0.05066785216331482
0.003263905644416809
0.1307338923215866
-0.01711483299732208
0.349464476108551
-0.1005333289504051
0.04466667026281357
-0.05996280536055565
-0.007011614739894867
5.378543846745742e-06
-0.06239588558673859
-0.03829770162701607
-0.009513802826404572
0.06351160258054733
0.03789440542459488
-0.2875613272190094
0.005633197724819183
0.03460190817713737
-0.05652894079685211
0.03640329465270042
-0.2898673117160797
-0.2857092618942261
-0.2557674646377563
-0.06392417848110199
0.2302078902721405
-0.0958537831902504
0.2484103441238403
-0.1478128731250763
0.00241243839263916
-0.1522165983915329
0.002378702163696289
0.3837644457817078
-0.1272606700658798
0
0.1332902908325195
0.00113353505730629
0.2902312874794006
0.07660599797964096
0.08065962791442871
-0.09089729189872742
-0.1015919297933578
-0.002292469143867493
-0.04708690196275711
0.08080670237541199
-0.1345617175102234
-0.1133868247270584
0.06891559064388275
-0.007547378540039062
-0.002169016748666763
0.007155859842896461
-0.03242607414722443
0.2855919599533081
-0.0005035102367401123
-0.06431160867214203
-0.1243349984288216
-0.02912060543894768
-0.2854940891265869
-0.06023804843425751
-0.1135069727897644
0.4149190485477448
0.05560877174139023
-0.03380773216485977
0.1289280503988266
0.00394301675260067
0.01702764816582203
0.03494950383901596
0.08165547251701355
-0.2244838178157806
-0.01448293775320053
0.03791972994804382
-0.08021010458469391
0.007018864154815674
0.003694919869303703
0.005668193101882935
0.05133716017007828
0.0871884822845459
-0.02393398992717266
-0.06464842706918716
0.005465410649776459
0.001593008637428284
-0.04718747735023499
0.2855972647666931
7.504102541133761e-06
0.07457577437162399
0.009639064781367779
-0.1946006864309311
-0.002276971936225891
0.03486466780304909
-0.1393900364637375
5.871850589755923e-05
-0.02753550931811333
-0.1335521042346954
0.03545986115932465
0.0001893115695565939
0.1043045595288277
-0.1613966822624207
0.1348065435886383
0.03494308516383171
-0.05352950468659401
-0.01794498786330223
0.02092019841074944
-0.03307239711284637
0.03018224611878395
0.01796144060790539
-0.06363934278488159
0.09788648784160614
-0.03923667967319489
0.1345147639513016
-0.09502112865447998
0.1343382596969604
-0.06150616705417633
0.05104117467999458
0.008618881925940514
-0.07407185435295105
-0.04724778980016708
6.23296364210546e-06
0.09103277325630188
-0.0004195049405097961
0.007041037082672119
-0.2972135245800018
-0.04098989069461823
0.009678812697529793
0.09683386981487274
0.00590139627456665
0.08052428066730499
-0.3835326433181763
-0.04037515446543694
0.1531653851270676
-0.1535336822271347
0.02889272943139076
0.06857770681381226
-0.2854713797569275
-0.05141635611653328
-0.03166519105434418
0.01114968489855528
0.04580410569906235
-0.02686341851949692
-0.001983597874641418
0.007418204098939896
0.0426316000521183
0.06730297952890396
0.05954625457525253
0.0125354491174221
0.003732316661626101
0.01577077805995941
0.03923452645540237
0.154618427157402
0.00925489142537117
0.06121861934661865
0.03022264689207077
0.03156567737460136
0.3613677620887756
-0.01258016005158424
0.002423912286758423
0.03451048210263252
-0.001139417290687561
0.03466048836708069
-0.05955222994089127
-0.005647160112857819
-0.003686919808387756
-0.1291527450084686
0.06072800606489182
0.02697919681668282
-0.2550718784332275
-0.09486780315637589
0.07853767275810242
-0.1187356635928154
-0.1570902466773987
0.004449158906936646
-0.09759204089641571
-0.01031692139804363
-0.00111854076385498
0.03377526625990868
-0.002432152628898621
-0.2304149866104126
0.1946210861206055
0.07544028759002686
-0.06122159212827682
-0.06172551959753036
0.03771712258458138
0.008508840575814247
-0.07853749394416809
0.02920709177851677
-0.01575761288404465
-0.2878604829311371
-0.2480021715164185
0.06488005071878433
-0.05019095540046692
0.002310633659362793
0.005458930507302284
-0.01755344495177269
-0.1050537377595901
0.0164014995098114
-0.1639272719621658
-0.04694755375385284
-0.09698391705751419
-0.07671197503805161
-0.01604720577597618
0.1160006523132324
-0.04990730434656143
0.005678195506334305
0.01508312672376633
0.230550155043602
-0.02574712038040161
-0.06291311979293823
-0.009459009394049644
0.04242007806897163
0.009650170803070068
-0.01817185431718826
-0.08199083805084229
-0.01507570501416922
0.003877878189086914
-0.1550765186548233
0.08028165996074677
-0.01720107533037663
0.003944272175431252
-0.05099412053823471
0.1151962354779243
0.03677171096205711
0.01785138435661793
0.1205545514822006
0.02800182811915874
-0.02926772646605968
-0.06744815409183502
-8.042901754379272e-05
0.06360325962305069
-0.01129882037639618
0.09405073523521423
0.02579740062355995
-0.1210523843765259
0.08362357318401337
-0.025530019775033
-0.0313849076628685
0.09372293204069138
0.03850853070616722
0.03719628602266312
-0.3360557556152344
-0.4075998067855835
-0.1344886869192123
-0.3491912484169006
0.04739344120025635
0.03953239321708679
-0.003694075159728527
-0.03156188130378723
8.046627044677734e-07
-0.06315264105796814
0.06849251687526703
0.01791081950068474
0.03663027286529541
-0.1526591181755066
-0.05720947682857513
0.05739037692546844
0.00131361186504364
0.1525623947381973
-0.06265769898891449
0.3666072189807892
0.001419562846422195
0.05992524325847626
0.009240448474884033
-0.001944888383150101
-0.06466005742549896
-0.07485777139663696
-0.07842135429382324
0.3197236061096191
0.02683820202946663
0.05350496247410774
0.134413555264473
-0.001215448603034019
0.01115413662046194
-0.05569092184305191
0.0001490494469180703
-0.01439018361270428
-0.01773521304130554
-0.007031322456896305
-0.04729798063635826
0.02791020087897778
-0.130770817399025
0.06074854731559753
0.0544109046459198
-0.06021891534328461
0.0114338044077158
0.01584144681692123
0.009968401864171028
0.02022550255060196
0.06712847203016281
0.03138245642185211
-0.03682737424969673
0.06336602568626404
0.2970382273197174
0.01263535022735596
-0.02588741108775139
0.01721036434173584
-0.3405718803405762
0.07494649291038513
0.00971684604883194
-0.1288104951381683
-0.09366001933813095
0.01733306050300598
-1.102685928344727e-06
-0.0942886546254158
0.03133940696716309
0.04751205071806908
-0.0938032865524292
-0.1254844814538956
0.003241315484046936
-0.00113852322101593
0.02641300298273563
-0.09421252459287643
-0.02439164184033871
-0.3362873494625092
-0.05427819490432739
-0.02077923342585564
-0.09588815271854401
0.05977852642536163
0.07568980753421783
-0.1273235827684402
0.01272408943623304
-0.4146467447280884
0.1520505100488663
-0.2482820898294449
0.01796567626297474
0.007608246523886919
0.01796771958470345
0.4144899249076843
0.287771612405777
-0.01531717646867037
-0.03963695093989372
-0.0004019886255264282
0.02741126157343388
-0.3492649793624878
-0.03162876516580582
0.06239039823412895
0.01574636995792389
0.01114147156476974
0.02891611307859421
0.06554414331912994
-0.2901620864868164
0.02570151910185814
0.05423763394355774
0.06359915435314178
-0.002066370099782944
-0.07823789864778519
-0.1255955398082733
-0.006959214806556702
0.0004156604409217834
-0.04467488825321198